+ 0.5 0 1 tcp 40 ------- 0 0.0 1.0 0 0
- 0.5 0 1 tcp 40 ------- 0 0.0 1.0 0 0
r 0.51004 0 1 tcp 40 ------- 0 0.0 1.0 0 0
+ 0.51004 1 0 ack 40 ------- 0 1.0 0.0 0 1
- 0.51004 1 0 ack 40 ------- 0 1.0 0.0 0 1
r 0.52008 1 0 ack 40 ------- 0 1.0 0.0 0 1
+ 0.52008 0 1 tcp 1040 ------- 0 0.0 1.0 1 2
- 0.52008 0 1 tcp 1040 ------- 0 0.0 1.0 1 2
+ 0.52008 0 1 tcp 1040 ------- 0 0.0 1.0 2 3
- 0.52112 0 1 tcp 1040 ------- 0 0.0 1.0 2 3
r 0.53112 0 1 tcp 1040 ------- 0 0.0 1.0 1 2
+ 0.53112 1 0 ack 40 ------- 0 1.0 0.0 1 4
- 0.53112 1 0 ack 40 ------- 0 1.0 0.0 1 4
r 0.53216 0 1 tcp 1040 ------- 0 0.0 1.0 2 3
+ 0.53216 1 0 ack 40 ------- 0 1.0 0.0 2 5
- 0.53216 1 0 ack 40 ------- 0 1.0 0.0 2 5
r 0.54116 1 0 ack 40 ------- 0 1.0 0.0 1 4
+ 0.54116 0 1 tcp 1040 ------- 0 0.0 1.0 3 6
- 0.54116 0 1 tcp 1040 ------- 0 0.0 1.0 3 6
+ 0.54116 0 1 tcp 1040 ------- 0 0.0 1.0 4 7
r 0.5422 1 0 ack 40 ------- 0 1.0 0.0 2 5
+ 0.5422 0 1 tcp 1040 ------- 0 0.0 1.0 5 8
+ 0.5422 0 1 tcp 1040 ------- 0 0.0 1.0 6 9
- 0.5422 0 1 tcp 1040 ------- 0 0.0 1.0 4 7
- 0.54324 0 1 tcp 1040 ------- 0 0.0 1.0 5 8
- 0.54428 0 1 tcp 1040 ------- 0 0.0 1.0 6 9
r 0.5522 0 1 tcp 1040 ------- 0 0.0 1.0 3 6
+ 0.5522 1 0 ack 40 ------- 0 1.0 0.0 3 10
- 0.5522 1 0 ack 40 ------- 0 1.0 0.0 3 10
r 0.55324 0 1 tcp 1040 ------- 0 0.0 1.0 4 7
+ 0.55324 1 0 ack 40 ------- 0 1.0 0.0 4 11
- 0.55324 1 0 ack 40 ------- 0 1.0 0.0 4 11
r 0.55428 0 1 tcp 1040 ------- 0 0.0 1.0 5 8
+ 0.55428 1 0 ack 40 ------- 0 1.0 0.0 5 12
- 0.55428 1 0 ack 40 ------- 0 1.0 0.0 5 12
r 0.55532 0 1 tcp 1040 ------- 0 0.0 1.0 6 9
+ 0.55532 1 0 ack 40 ------- 0 1.0 0.0 6 13
- 0.55532 1 0 ack 40 ------- 0 1.0 0.0 6 13
r 0.56224 1 0 ack 40 ------- 0 1.0 0.0 3 10
+ 0.56224 0 1 tcp 1040 ------- 0 0.0 1.0 7 14
- 0.56224 0 1 tcp 1040 ------- 0 0.0 1.0 7 14
+ 0.56224 0 1 tcp 1040 ------- 0 0.0 1.0 8 15
r 0.56328 1 0 ack 40 ------- 0 1.0 0.0 4 11
+ 0.56328 0 1 tcp 1040 ------- 0 0.0 1.0 9 16
+ 0.56328 0 1 tcp 1040 ------- 0 0.0 1.0 10 17
- 0.56328 0 1 tcp 1040 ------- 0 0.0 1.0 8 15
r 0.56432 1 0 ack 40 ------- 0 1.0 0.0 5 12
+ 0.56432 0 1 tcp 1040 ------- 0 0.0 1.0 11 18
+ 0.56432 0 1 tcp 1040 ------- 0 0.0 1.0 12 19
- 0.56432 0 1 tcp 1040 ------- 0 0.0 1.0 9 16
r 0.56536 1 0 ack 40 ------- 0 1.0 0.0 6 13
+ 0.56536 0 1 tcp 1040 ------- 0 0.0 1.0 13 20
+ 0.56536 0 1 tcp 1040 ------- 0 0.0 1.0 14 21
- 0.56536 0 1 tcp 1040 ------- 0 0.0 1.0 10 17
- 0.5664 0 1 tcp 1040 ------- 0 0.0 1.0 11 18
- 0.56744 0 1 tcp 1040 ------- 0 0.0 1.0 12 19
- 0.56848 0 1 tcp 1040 ------- 0 0.0 1.0 13 20
- 0.56952 0 1 tcp 1040 ------- 0 0.0 1.0 14 21
r 0.57328 0 1 tcp 1040 ------- 0 0.0 1.0 7 14
+ 0.57328 1 0 ack 40 ------- 0 1.0 0.0 7 22
- 0.57328 1 0 ack 40 ------- 0 1.0 0.0 7 22
r 0.57432 0 1 tcp 1040 ------- 0 0.0 1.0 8 15
+ 0.57432 1 0 ack 40 ------- 0 1.0 0.0 8 23
- 0.57432 1 0 ack 40 ------- 0 1.0 0.0 8 23
r 0.57536 0 1 tcp 1040 ------- 0 0.0 1.0 9 16
+ 0.57536 1 0 ack 40 ------- 0 1.0 0.0 9 24
- 0.57536 1 0 ack 40 ------- 0 1.0 0.0 9 24
r 0.5764 0 1 tcp 1040 ------- 0 0.0 1.0 10 17
+ 0.5764 1 0 ack 40 ------- 0 1.0 0.0 10 25
- 0.5764 1 0 ack 40 ------- 0 1.0 0.0 10 25
r 0.57744 0 1 tcp 1040 ------- 0 0.0 1.0 11 18
+ 0.57744 1 0 ack 40 ------- 0 1.0 0.0 11 26
- 0.57744 1 0 ack 40 ------- 0 1.0 0.0 11 26
r 0.57848 0 1 tcp 1040 ------- 0 0.0 1.0 12 19
+ 0.57848 1 0 ack 40 ------- 0 1.0 0.0 12 27
- 0.57848 1 0 ack 40 ------- 0 1.0 0.0 12 27
r 0.57952 0 1 tcp 1040 ------- 0 0.0 1.0 13 20
+ 0.57952 1 0 ack 40 ------- 0 1.0 0.0 13 28
- 0.57952 1 0 ack 40 ------- 0 1.0 0.0 13 28
r 0.58056 0 1 tcp 1040 ------- 0 0.0 1.0 14 21
+ 0.58056 1 0 ack 40 ------- 0 1.0 0.0 14 29
- 0.58056 1 0 ack 40 ------- 0 1.0 0.0 14 29
r 0.58332 1 0 ack 40 ------- 0 1.0 0.0 7 22
+ 0.58332 0 1 tcp 1040 ------- 0 0.0 1.0 15 30
- 0.58332 0 1 tcp 1040 ------- 0 0.0 1.0 15 30
+ 0.58332 0 1 tcp 1040 ------- 0 0.0 1.0 16 31
r 0.58436 1 0 ack 40 ------- 0 1.0 0.0 8 23
+ 0.58436 0 1 tcp 1040 ------- 0 0.0 1.0 17 32
+ 0.58436 0 1 tcp 1040 ------- 0 0.0 1.0 18 33
- 0.58436 0 1 tcp 1040 ------- 0 0.0 1.0 16 31
r 0.5854 1 0 ack 40 ------- 0 1.0 0.0 9 24
+ 0.5854 0 1 tcp 1040 ------- 0 0.0 1.0 19 34
+ 0.5854 0 1 tcp 1040 ------- 0 0.0 1.0 20 35
- 0.5854 0 1 tcp 1040 ------- 0 0.0 1.0 17 32
r 0.58644 1 0 ack 40 ------- 0 1.0 0.0 10 25
+ 0.58644 0 1 tcp 1040 ------- 0 0.0 1.0 21 36
+ 0.58644 0 1 tcp 1040 ------- 0 0.0 1.0 22 37
- 0.58644 0 1 tcp 1040 ------- 0 0.0 1.0 18 33
r 0.58748 1 0 ack 40 ------- 0 1.0 0.0 11 26
+ 0.58748 0 1 tcp 1040 ------- 0 0.0 1.0 23 38
+ 0.58748 0 1 tcp 1040 ------- 0 0.0 1.0 24 39
- 0.58748 0 1 tcp 1040 ------- 0 0.0 1.0 19 34
r 0.58852 1 0 ack 40 ------- 0 1.0 0.0 12 27
+ 0.58852 0 1 tcp 1040 ------- 0 0.0 1.0 25 40
+ 0.58852 0 1 tcp 1040 ------- 0 0.0 1.0 26 41
- 0.58852 0 1 tcp 1040 ------- 0 0.0 1.0 20 35
r 0.58956 1 0 ack 40 ------- 0 1.0 0.0 13 28
+ 0.58956 0 1 tcp 1040 ------- 0 0.0 1.0 27 42
+ 0.58956 0 1 tcp 1040 ------- 0 0.0 1.0 28 43
- 0.58956 0 1 tcp 1040 ------- 0 0.0 1.0 21 36
r 0.5906 1 0 ack 40 ------- 0 1.0 0.0 14 29
+ 0.5906 0 1 tcp 1040 ------- 0 0.0 1.0 29 44
+ 0.5906 0 1 tcp 1040 ------- 0 0.0 1.0 30 45
- 0.5906 0 1 tcp 1040 ------- 0 0.0 1.0 22 37
- 0.59164 0 1 tcp 1040 ------- 0 0.0 1.0 23 38
- 0.59268 0 1 tcp 1040 ------- 0 0.0 1.0 24 39
- 0.59372 0 1 tcp 1040 ------- 0 0.0 1.0 25 40
r 0.59436 0 1 tcp 1040 ------- 0 0.0 1.0 15 30
+ 0.59436 1 0 ack 40 ------- 0 1.0 0.0 15 46
- 0.59436 1 0 ack 40 ------- 0 1.0 0.0 15 46
- 0.59476 0 1 tcp 1040 ------- 0 0.0 1.0 26 41
r 0.5954 0 1 tcp 1040 ------- 0 0.0 1.0 16 31
+ 0.5954 1 0 ack 40 ------- 0 1.0 0.0 16 47
- 0.5954 1 0 ack 40 ------- 0 1.0 0.0 16 47
- 0.5958 0 1 tcp 1040 ------- 0 0.0 1.0 27 42
r 0.59644 0 1 tcp 1040 ------- 0 0.0 1.0 17 32
+ 0.59644 1 0 ack 40 ------- 0 1.0 0.0 17 48
- 0.59644 1 0 ack 40 ------- 0 1.0 0.0 17 48
- 0.59684 0 1 tcp 1040 ------- 0 0.0 1.0 28 43
r 0.59748 0 1 tcp 1040 ------- 0 0.0 1.0 18 33
+ 0.59748 1 0 ack 40 ------- 0 1.0 0.0 18 49
- 0.59748 1 0 ack 40 ------- 0 1.0 0.0 18 49
- 0.59788 0 1 tcp 1040 ------- 0 0.0 1.0 29 44
r 0.59852 0 1 tcp 1040 ------- 0 0.0 1.0 19 34
+ 0.59852 1 0 ack 40 ------- 0 1.0 0.0 19 50
- 0.59852 1 0 ack 40 ------- 0 1.0 0.0 19 50
- 0.59892 0 1 tcp 1040 ------- 0 0.0 1.0 30 45
r 0.59956 0 1 tcp 1040 ------- 0 0.0 1.0 20 35
+ 0.59956 1 0 ack 40 ------- 0 1.0 0.0 20 51
- 0.59956 1 0 ack 40 ------- 0 1.0 0.0 20 51
r 0.6006 0 1 tcp 1040 ------- 0 0.0 1.0 21 36
+ 0.6006 1 0 ack 40 ------- 0 1.0 0.0 21 52
- 0.6006 1 0 ack 40 ------- 0 1.0 0.0 21 52
r 0.60164 0 1 tcp 1040 ------- 0 0.0 1.0 22 37
+ 0.60164 1 0 ack 40 ------- 0 1.0 0.0 22 53
- 0.60164 1 0 ack 40 ------- 0 1.0 0.0 22 53
r 0.60268 0 1 tcp 1040 ------- 0 0.0 1.0 23 38
+ 0.60268 1 0 ack 40 ------- 0 1.0 0.0 23 54
- 0.60268 1 0 ack 40 ------- 0 1.0 0.0 23 54
r 0.60372 0 1 tcp 1040 ------- 0 0.0 1.0 24 39
+ 0.60372 1 0 ack 40 ------- 0 1.0 0.0 24 55
- 0.60372 1 0 ack 40 ------- 0 1.0 0.0 24 55
r 0.6044 1 0 ack 40 ------- 0 1.0 0.0 15 46
+ 0.6044 0 1 tcp 1040 ------- 0 0.0 1.0 31 56
- 0.6044 0 1 tcp 1040 ------- 0 0.0 1.0 31 56
+ 0.6044 0 1 tcp 1040 ------- 0 0.0 1.0 32 57
r 0.60476 0 1 tcp 1040 ------- 0 0.0 1.0 25 40
+ 0.60476 1 0 ack 40 ------- 0 1.0 0.0 25 58
- 0.60476 1 0 ack 40 ------- 0 1.0 0.0 25 58
r 0.60544 1 0 ack 40 ------- 0 1.0 0.0 16 47
+ 0.60544 0 1 tcp 1040 ------- 0 0.0 1.0 33 59
+ 0.60544 0 1 tcp 1040 ------- 0 0.0 1.0 34 60
- 0.60544 0 1 tcp 1040 ------- 0 0.0 1.0 32 57
r 0.6058 0 1 tcp 1040 ------- 0 0.0 1.0 26 41
+ 0.6058 1 0 ack 40 ------- 0 1.0 0.0 26 61
- 0.6058 1 0 ack 40 ------- 0 1.0 0.0 26 61
r 0.60648 1 0 ack 40 ------- 0 1.0 0.0 17 48
+ 0.60648 0 1 tcp 1040 ------- 0 0.0 1.0 35 62
+ 0.60648 0 1 tcp 1040 ------- 0 0.0 1.0 36 63
- 0.60648 0 1 tcp 1040 ------- 0 0.0 1.0 33 59
r 0.60684 0 1 tcp 1040 ------- 0 0.0 1.0 27 42
+ 0.60684 1 0 ack 40 ------- 0 1.0 0.0 27 64
- 0.60684 1 0 ack 40 ------- 0 1.0 0.0 27 64
r 0.60752 1 0 ack 40 ------- 0 1.0 0.0 18 49
+ 0.60752 0 1 tcp 1040 ------- 0 0.0 1.0 37 65
+ 0.60752 0 1 tcp 1040 ------- 0 0.0 1.0 38 66
- 0.60752 0 1 tcp 1040 ------- 0 0.0 1.0 34 60
r 0.60788 0 1 tcp 1040 ------- 0 0.0 1.0 28 43
+ 0.60788 1 0 ack 40 ------- 0 1.0 0.0 28 67
- 0.60788 1 0 ack 40 ------- 0 1.0 0.0 28 67
r 0.60856 1 0 ack 40 ------- 0 1.0 0.0 19 50
+ 0.60856 0 1 tcp 1040 ------- 0 0.0 1.0 39 68
- 0.60856 0 1 tcp 1040 ------- 0 0.0 1.0 35 62
r 0.60892 0 1 tcp 1040 ------- 0 0.0 1.0 29 44
+ 0.60892 1 0 ack 40 ------- 0 1.0 0.0 29 69
- 0.60892 1 0 ack 40 ------- 0 1.0 0.0 29 69
r 0.6096 1 0 ack 40 ------- 0 1.0 0.0 20 51
+ 0.6096 0 1 tcp 1040 ------- 0 0.0 1.0 40 70
- 0.6096 0 1 tcp 1040 ------- 0 0.0 1.0 36 63
r 0.60996 0 1 tcp 1040 ------- 0 0.0 1.0 30 45
+ 0.60996 1 0 ack 40 ------- 0 1.0 0.0 30 71
- 0.60996 1 0 ack 40 ------- 0 1.0 0.0 30 71
r 0.61064 1 0 ack 40 ------- 0 1.0 0.0 21 52
+ 0.61064 0 1 tcp 1040 ------- 0 0.0 1.0 41 72
- 0.61064 0 1 tcp 1040 ------- 0 0.0 1.0 37 65
r 0.61168 1 0 ack 40 ------- 0 1.0 0.0 22 53
+ 0.61168 0 1 tcp 1040 ------- 0 0.0 1.0 42 73
- 0.61168 0 1 tcp 1040 ------- 0 0.0 1.0 38 66
r 0.61272 1 0 ack 40 ------- 0 1.0 0.0 23 54
+ 0.61272 0 1 tcp 1040 ------- 0 0.0 1.0 43 74
- 0.61272 0 1 tcp 1040 ------- 0 0.0 1.0 39 68
r 0.61376 1 0 ack 40 ------- 0 1.0 0.0 24 55
+ 0.61376 0 1 tcp 1040 ------- 0 0.0 1.0 44 75
- 0.61376 0 1 tcp 1040 ------- 0 0.0 1.0 40 70
r 0.6148 1 0 ack 40 ------- 0 1.0 0.0 25 58
+ 0.6148 0 1 tcp 1040 ------- 0 0.0 1.0 45 76
- 0.6148 0 1 tcp 1040 ------- 0 0.0 1.0 41 72
r 0.61544 0 1 tcp 1040 ------- 0 0.0 1.0 31 56
+ 0.61544 1 0 ack 40 ------- 0 1.0 0.0 31 77
- 0.61544 1 0 ack 40 ------- 0 1.0 0.0 31 77
r 0.61584 1 0 ack 40 ------- 0 1.0 0.0 26 61
+ 0.61584 0 1 tcp 1040 ------- 0 0.0 1.0 46 78
- 0.61584 0 1 tcp 1040 ------- 0 0.0 1.0 42 73
r 0.61648 0 1 tcp 1040 ------- 0 0.0 1.0 32 57
+ 0.61648 1 0 ack 40 ------- 0 1.0 0.0 32 79
- 0.61648 1 0 ack 40 ------- 0 1.0 0.0 32 79
r 0.61688 1 0 ack 40 ------- 0 1.0 0.0 27 64
+ 0.61688 0 1 tcp 1040 ------- 0 0.0 1.0 47 80
- 0.61688 0 1 tcp 1040 ------- 0 0.0 1.0 43 74
r 0.61752 0 1 tcp 1040 ------- 0 0.0 1.0 33 59
+ 0.61752 1 0 ack 40 ------- 0 1.0 0.0 33 81
- 0.61752 1 0 ack 40 ------- 0 1.0 0.0 33 81
r 0.61792 1 0 ack 40 ------- 0 1.0 0.0 28 67
+ 0.61792 0 1 tcp 1040 ------- 0 0.0 1.0 48 82
- 0.61792 0 1 tcp 1040 ------- 0 0.0 1.0 44 75
r 0.61856 0 1 tcp 1040 ------- 0 0.0 1.0 34 60
+ 0.61856 1 0 ack 40 ------- 0 1.0 0.0 34 83
- 0.61856 1 0 ack 40 ------- 0 1.0 0.0 34 83
r 0.61896 1 0 ack 40 ------- 0 1.0 0.0 29 69
+ 0.61896 0 1 tcp 1040 ------- 0 0.0 1.0 49 84
- 0.61896 0 1 tcp 1040 ------- 0 0.0 1.0 45 76
r 0.6196 0 1 tcp 1040 ------- 0 0.0 1.0 35 62
+ 0.6196 1 0 ack 40 ------- 0 1.0 0.0 35 85
- 0.6196 1 0 ack 40 ------- 0 1.0 0.0 35 85
r 0.62 1 0 ack 40 ------- 0 1.0 0.0 30 71
+ 0.62 0 1 tcp 1040 ------- 0 0.0 1.0 50 86
- 0.62 0 1 tcp 1040 ------- 0 0.0 1.0 46 78
r 0.62064 0 1 tcp 1040 ------- 0 0.0 1.0 36 63
+ 0.62064 1 0 ack 40 ------- 0 1.0 0.0 36 87
- 0.62064 1 0 ack 40 ------- 0 1.0 0.0 36 87
- 0.62104 0 1 tcp 1040 ------- 0 0.0 1.0 47 80
r 0.62168 0 1 tcp 1040 ------- 0 0.0 1.0 37 65
+ 0.62168 1 0 ack 40 ------- 0 1.0 0.0 37 88
- 0.62168 1 0 ack 40 ------- 0 1.0 0.0 37 88
- 0.62208 0 1 tcp 1040 ------- 0 0.0 1.0 48 82
r 0.62272 0 1 tcp 1040 ------- 0 0.0 1.0 38 66
+ 0.62272 1 0 ack 40 ------- 0 1.0 0.0 38 89
- 0.62272 1 0 ack 40 ------- 0 1.0 0.0 38 89
- 0.62312 0 1 tcp 1040 ------- 0 0.0 1.0 49 84
r 0.62376 0 1 tcp 1040 ------- 0 0.0 1.0 39 68
+ 0.62376 1 0 ack 40 ------- 0 1.0 0.0 39 90
- 0.62376 1 0 ack 40 ------- 0 1.0 0.0 39 90
- 0.62416 0 1 tcp 1040 ------- 0 0.0 1.0 50 86
r 0.6248 0 1 tcp 1040 ------- 0 0.0 1.0 40 70
+ 0.6248 1 0 ack 40 ------- 0 1.0 0.0 40 91
- 0.6248 1 0 ack 40 ------- 0 1.0 0.0 40 91
r 0.62548 1 0 ack 40 ------- 0 1.0 0.0 31 77
+ 0.62548 0 1 tcp 1040 ------- 0 0.0 1.0 51 92
- 0.62548 0 1 tcp 1040 ------- 0 0.0 1.0 51 92
r 0.62584 0 1 tcp 1040 ------- 0 0.0 1.0 41 72
+ 0.62584 1 0 ack 40 ------- 0 1.0 0.0 41 93
- 0.62584 1 0 ack 40 ------- 0 1.0 0.0 41 93
r 0.62652 1 0 ack 40 ------- 0 1.0 0.0 32 79
+ 0.62652 0 1 tcp 1040 ------- 0 0.0 1.0 52 94
- 0.62652 0 1 tcp 1040 ------- 0 0.0 1.0 52 94
r 0.62688 0 1 tcp 1040 ------- 0 0.0 1.0 42 73
+ 0.62688 1 0 ack 40 ------- 0 1.0 0.0 42 95
- 0.62688 1 0 ack 40 ------- 0 1.0 0.0 42 95
r 0.62756 1 0 ack 40 ------- 0 1.0 0.0 33 81
+ 0.62756 0 1 tcp 1040 ------- 0 0.0 1.0 53 96
- 0.62756 0 1 tcp 1040 ------- 0 0.0 1.0 53 96
r 0.62792 0 1 tcp 1040 ------- 0 0.0 1.0 43 74
+ 0.62792 1 0 ack 40 ------- 0 1.0 0.0 43 97
- 0.62792 1 0 ack 40 ------- 0 1.0 0.0 43 97
r 0.6286 1 0 ack 40 ------- 0 1.0 0.0 34 83
+ 0.6286 0 1 tcp 1040 ------- 0 0.0 1.0 54 98
- 0.6286 0 1 tcp 1040 ------- 0 0.0 1.0 54 98
r 0.62896 0 1 tcp 1040 ------- 0 0.0 1.0 44 75
+ 0.62896 1 0 ack 40 ------- 0 1.0 0.0 44 99
- 0.62896 1 0 ack 40 ------- 0 1.0 0.0 44 99
r 0.62964 1 0 ack 40 ------- 0 1.0 0.0 35 85
+ 0.62964 0 1 tcp 1040 ------- 0 0.0 1.0 55 100
- 0.62964 0 1 tcp 1040 ------- 0 0.0 1.0 55 100
r 0.63 0 1 tcp 1040 ------- 0 0.0 1.0 45 76
+ 0.63 1 0 ack 40 ------- 0 1.0 0.0 45 101
- 0.63 1 0 ack 40 ------- 0 1.0 0.0 45 101
r 0.63068 1 0 ack 40 ------- 0 1.0 0.0 36 87
+ 0.63068 0 1 tcp 1040 ------- 0 0.0 1.0 56 102
- 0.63068 0 1 tcp 1040 ------- 0 0.0 1.0 56 102
r 0.63104 0 1 tcp 1040 ------- 0 0.0 1.0 46 78
+ 0.63104 1 0 ack 40 ------- 0 1.0 0.0 46 103
- 0.63104 1 0 ack 40 ------- 0 1.0 0.0 46 103
r 0.63172 1 0 ack 40 ------- 0 1.0 0.0 37 88
+ 0.63172 0 1 tcp 1040 ------- 0 0.0 1.0 57 104
- 0.63172 0 1 tcp 1040 ------- 0 0.0 1.0 57 104
r 0.63208 0 1 tcp 1040 ------- 0 0.0 1.0 47 80
+ 0.63208 1 0 ack 40 ------- 0 1.0 0.0 47 105
- 0.63208 1 0 ack 40 ------- 0 1.0 0.0 47 105
r 0.63276 1 0 ack 40 ------- 0 1.0 0.0 38 89
+ 0.63276 0 1 tcp 1040 ------- 0 0.0 1.0 58 106
- 0.63276 0 1 tcp 1040 ------- 0 0.0 1.0 58 106
r 0.63312 0 1 tcp 1040 ------- 0 0.0 1.0 48 82
+ 0.63312 1 0 ack 40 ------- 0 1.0 0.0 48 107
- 0.63312 1 0 ack 40 ------- 0 1.0 0.0 48 107
r 0.6338 1 0 ack 40 ------- 0 1.0 0.0 39 90
+ 0.6338 0 1 tcp 1040 ------- 0 0.0 1.0 59 108
- 0.6338 0 1 tcp 1040 ------- 0 0.0 1.0 59 108
r 0.63416 0 1 tcp 1040 ------- 0 0.0 1.0 49 84
+ 0.63416 1 0 ack 40 ------- 0 1.0 0.0 49 109
- 0.63416 1 0 ack 40 ------- 0 1.0 0.0 49 109
r 0.63484 1 0 ack 40 ------- 0 1.0 0.0 40 91
+ 0.63484 0 1 tcp 1040 ------- 0 0.0 1.0 60 110
- 0.63484 0 1 tcp 1040 ------- 0 0.0 1.0 60 110
r 0.6352 0 1 tcp 1040 ------- 0 0.0 1.0 50 86
+ 0.6352 1 0 ack 40 ------- 0 1.0 0.0 50 111
- 0.6352 1 0 ack 40 ------- 0 1.0 0.0 50 111
r 0.63588 1 0 ack 40 ------- 0 1.0 0.0 41 93
+ 0.63588 0 1 tcp 1040 ------- 0 0.0 1.0 61 112
- 0.63588 0 1 tcp 1040 ------- 0 0.0 1.0 61 112
r 0.63652 0 1 tcp 1040 ------- 0 0.0 1.0 51 92
+ 0.63652 1 0 ack 40 ------- 0 1.0 0.0 51 113
- 0.63652 1 0 ack 40 ------- 0 1.0 0.0 51 113
r 0.63692 1 0 ack 40 ------- 0 1.0 0.0 42 95
+ 0.63692 0 1 tcp 1040 ------- 0 0.0 1.0 62 114
- 0.63692 0 1 tcp 1040 ------- 0 0.0 1.0 62 114
r 0.63756 0 1 tcp 1040 ------- 0 0.0 1.0 52 94
+ 0.63756 1 0 ack 40 ------- 0 1.0 0.0 52 115
- 0.63756 1 0 ack 40 ------- 0 1.0 0.0 52 115
r 0.63796 1 0 ack 40 ------- 0 1.0 0.0 43 97
+ 0.63796 0 1 tcp 1040 ------- 0 0.0 1.0 63 116
- 0.63796 0 1 tcp 1040 ------- 0 0.0 1.0 63 116
r 0.6386 0 1 tcp 1040 ------- 0 0.0 1.0 53 96
+ 0.6386 1 0 ack 40 ------- 0 1.0 0.0 53 117
- 0.6386 1 0 ack 40 ------- 0 1.0 0.0 53 117
r 0.639 1 0 ack 40 ------- 0 1.0 0.0 44 99
+ 0.639 0 1 tcp 1040 ------- 0 0.0 1.0 64 118
- 0.639 0 1 tcp 1040 ------- 0 0.0 1.0 64 118
r 0.63964 0 1 tcp 1040 ------- 0 0.0 1.0 54 98
+ 0.63964 1 0 ack 40 ------- 0 1.0 0.0 54 119
- 0.63964 1 0 ack 40 ------- 0 1.0 0.0 54 119
r 0.64004 1 0 ack 40 ------- 0 1.0 0.0 45 101
+ 0.64004 0 1 tcp 1040 ------- 0 0.0 1.0 65 120
- 0.64004 0 1 tcp 1040 ------- 0 0.0 1.0 65 120
r 0.64068 0 1 tcp 1040 ------- 0 0.0 1.0 55 100
+ 0.64068 1 0 ack 40 ------- 0 1.0 0.0 55 121
- 0.64068 1 0 ack 40 ------- 0 1.0 0.0 55 121
r 0.64108 1 0 ack 40 ------- 0 1.0 0.0 46 103
+ 0.64108 0 1 tcp 1040 ------- 0 0.0 1.0 66 122
- 0.64108 0 1 tcp 1040 ------- 0 0.0 1.0 66 122
r 0.64172 0 1 tcp 1040 ------- 0 0.0 1.0 56 102
+ 0.64172 1 0 ack 40 ------- 0 1.0 0.0 56 123
- 0.64172 1 0 ack 40 ------- 0 1.0 0.0 56 123
r 0.64212 1 0 ack 40 ------- 0 1.0 0.0 47 105
+ 0.64212 0 1 tcp 1040 ------- 0 0.0 1.0 67 124
- 0.64212 0 1 tcp 1040 ------- 0 0.0 1.0 67 124
r 0.64276 0 1 tcp 1040 ------- 0 0.0 1.0 57 104
+ 0.64276 1 0 ack 40 ------- 0 1.0 0.0 57 125
- 0.64276 1 0 ack 40 ------- 0 1.0 0.0 57 125
r 0.64316 1 0 ack 40 ------- 0 1.0 0.0 48 107
+ 0.64316 0 1 tcp 1040 ------- 0 0.0 1.0 68 126
- 0.64316 0 1 tcp 1040 ------- 0 0.0 1.0 68 126
r 0.6438 0 1 tcp 1040 ------- 0 0.0 1.0 58 106
+ 0.6438 1 0 ack 40 ------- 0 1.0 0.0 58 127
- 0.6438 1 0 ack 40 ------- 0 1.0 0.0 58 127
r 0.6442 1 0 ack 40 ------- 0 1.0 0.0 49 109
+ 0.6442 0 1 tcp 1040 ------- 0 0.0 1.0 69 128
- 0.6442 0 1 tcp 1040 ------- 0 0.0 1.0 69 128
r 0.64484 0 1 tcp 1040 ------- 0 0.0 1.0 59 108
+ 0.64484 1 0 ack 40 ------- 0 1.0 0.0 59 129
- 0.64484 1 0 ack 40 ------- 0 1.0 0.0 59 129
r 0.64524 1 0 ack 40 ------- 0 1.0 0.0 50 111
+ 0.64524 0 1 tcp 1040 ------- 0 0.0 1.0 70 130
- 0.64524 0 1 tcp 1040 ------- 0 0.0 1.0 70 130
r 0.64588 0 1 tcp 1040 ------- 0 0.0 1.0 60 110
+ 0.64588 1 0 ack 40 ------- 0 1.0 0.0 60 131
- 0.64588 1 0 ack 40 ------- 0 1.0 0.0 60 131
r 0.64656 1 0 ack 40 ------- 0 1.0 0.0 51 113
+ 0.64656 0 1 tcp 1040 ------- 0 0.0 1.0 71 132
- 0.64656 0 1 tcp 1040 ------- 0 0.0 1.0 71 132
r 0.64692 0 1 tcp 1040 ------- 0 0.0 1.0 61 112
+ 0.64692 1 0 ack 40 ------- 0 1.0 0.0 61 133
- 0.64692 1 0 ack 40 ------- 0 1.0 0.0 61 133
r 0.6476 1 0 ack 40 ------- 0 1.0 0.0 52 115
+ 0.6476 0 1 tcp 1040 ------- 0 0.0 1.0 72 134
- 0.6476 0 1 tcp 1040 ------- 0 0.0 1.0 72 134
r 0.64796 0 1 tcp 1040 ------- 0 0.0 1.0 62 114
+ 0.64796 1 0 ack 40 ------- 0 1.0 0.0 62 135
- 0.64796 1 0 ack 40 ------- 0 1.0 0.0 62 135
r 0.64864 1 0 ack 40 ------- 0 1.0 0.0 53 117
+ 0.64864 0 1 tcp 1040 ------- 0 0.0 1.0 73 136
- 0.64864 0 1 tcp 1040 ------- 0 0.0 1.0 73 136
r 0.649 0 1 tcp 1040 ------- 0 0.0 1.0 63 116
+ 0.649 1 0 ack 40 ------- 0 1.0 0.0 63 137
- 0.649 1 0 ack 40 ------- 0 1.0 0.0 63 137
r 0.64968 1 0 ack 40 ------- 0 1.0 0.0 54 119
+ 0.64968 0 1 tcp 1040 ------- 0 0.0 1.0 74 138
- 0.64968 0 1 tcp 1040 ------- 0 0.0 1.0 74 138
r 0.65004 0 1 tcp 1040 ------- 0 0.0 1.0 64 118
+ 0.65004 1 0 ack 40 ------- 0 1.0 0.0 64 139
- 0.65004 1 0 ack 40 ------- 0 1.0 0.0 64 139
r 0.65072 1 0 ack 40 ------- 0 1.0 0.0 55 121
+ 0.65072 0 1 tcp 1040 ------- 0 0.0 1.0 75 140
- 0.65072 0 1 tcp 1040 ------- 0 0.0 1.0 75 140
r 0.65108 0 1 tcp 1040 ------- 0 0.0 1.0 65 120
+ 0.65108 1 0 ack 40 ------- 0 1.0 0.0 65 141
- 0.65108 1 0 ack 40 ------- 0 1.0 0.0 65 141
r 0.65176 1 0 ack 40 ------- 0 1.0 0.0 56 123
+ 0.65176 0 1 tcp 1040 ------- 0 0.0 1.0 76 142
- 0.65176 0 1 tcp 1040 ------- 0 0.0 1.0 76 142
r 0.65212 0 1 tcp 1040 ------- 0 0.0 1.0 66 122
+ 0.65212 1 0 ack 40 ------- 0 1.0 0.0 66 143
- 0.65212 1 0 ack 40 ------- 0 1.0 0.0 66 143
r 0.6528 1 0 ack 40 ------- 0 1.0 0.0 57 125
+ 0.6528 0 1 tcp 1040 ------- 0 0.0 1.0 77 144
- 0.6528 0 1 tcp 1040 ------- 0 0.0 1.0 77 144
r 0.65316 0 1 tcp 1040 ------- 0 0.0 1.0 67 124
+ 0.65316 1 0 ack 40 ------- 0 1.0 0.0 67 145
- 0.65316 1 0 ack 40 ------- 0 1.0 0.0 67 145
r 0.65384 1 0 ack 40 ------- 0 1.0 0.0 58 127
+ 0.65384 0 1 tcp 1040 ------- 0 0.0 1.0 78 146
- 0.65384 0 1 tcp 1040 ------- 0 0.0 1.0 78 146
r 0.6542 0 1 tcp 1040 ------- 0 0.0 1.0 68 126
+ 0.6542 1 0 ack 40 ------- 0 1.0 0.0 68 147
- 0.6542 1 0 ack 40 ------- 0 1.0 0.0 68 147
r 0.65488 1 0 ack 40 ------- 0 1.0 0.0 59 129
+ 0.65488 0 1 tcp 1040 ------- 0 0.0 1.0 79 148
- 0.65488 0 1 tcp 1040 ------- 0 0.0 1.0 79 148
r 0.65524 0 1 tcp 1040 ------- 0 0.0 1.0 69 128
+ 0.65524 1 0 ack 40 ------- 0 1.0 0.0 69 149
- 0.65524 1 0 ack 40 ------- 0 1.0 0.0 69 149
r 0.65592 1 0 ack 40 ------- 0 1.0 0.0 60 131
+ 0.65592 0 1 tcp 1040 ------- 0 0.0 1.0 80 150
- 0.65592 0 1 tcp 1040 ------- 0 0.0 1.0 80 150
r 0.65628 0 1 tcp 1040 ------- 0 0.0 1.0 70 130
+ 0.65628 1 0 ack 40 ------- 0 1.0 0.0 70 151
- 0.65628 1 0 ack 40 ------- 0 1.0 0.0 70 151
r 0.65696 1 0 ack 40 ------- 0 1.0 0.0 61 133
+ 0.65696 0 1 tcp 1040 ------- 0 0.0 1.0 81 152
- 0.65696 0 1 tcp 1040 ------- 0 0.0 1.0 81 152
r 0.6576 0 1 tcp 1040 ------- 0 0.0 1.0 71 132
+ 0.6576 1 0 ack 40 ------- 0 1.0 0.0 71 153
- 0.6576 1 0 ack 40 ------- 0 1.0 0.0 71 153
r 0.658 1 0 ack 40 ------- 0 1.0 0.0 62 135
+ 0.658 0 1 tcp 1040 ------- 0 0.0 1.0 82 154
- 0.658 0 1 tcp 1040 ------- 0 0.0 1.0 82 154
r 0.65864 0 1 tcp 1040 ------- 0 0.0 1.0 72 134
+ 0.65864 1 0 ack 40 ------- 0 1.0 0.0 72 155
- 0.65864 1 0 ack 40 ------- 0 1.0 0.0 72 155
r 0.65904 1 0 ack 40 ------- 0 1.0 0.0 63 137
+ 0.65904 0 1 tcp 1040 ------- 0 0.0 1.0 83 156
- 0.65904 0 1 tcp 1040 ------- 0 0.0 1.0 83 156
r 0.65968 0 1 tcp 1040 ------- 0 0.0 1.0 73 136
+ 0.65968 1 0 ack 40 ------- 0 1.0 0.0 73 157
- 0.65968 1 0 ack 40 ------- 0 1.0 0.0 73 157
r 0.66008 1 0 ack 40 ------- 0 1.0 0.0 64 139
+ 0.66008 0 1 tcp 1040 ------- 0 0.0 1.0 84 158
- 0.66008 0 1 tcp 1040 ------- 0 0.0 1.0 84 158
r 0.66072 0 1 tcp 1040 ------- 0 0.0 1.0 74 138
+ 0.66072 1 0 ack 40 ------- 0 1.0 0.0 74 159
- 0.66072 1 0 ack 40 ------- 0 1.0 0.0 74 159
r 0.66112 1 0 ack 40 ------- 0 1.0 0.0 65 141
+ 0.66112 0 1 tcp 1040 ------- 0 0.0 1.0 85 160
- 0.66112 0 1 tcp 1040 ------- 0 0.0 1.0 85 160
r 0.66176 0 1 tcp 1040 ------- 0 0.0 1.0 75 140
+ 0.66176 1 0 ack 40 ------- 0 1.0 0.0 75 161
- 0.66176 1 0 ack 40 ------- 0 1.0 0.0 75 161
r 0.66216 1 0 ack 40 ------- 0 1.0 0.0 66 143
+ 0.66216 0 1 tcp 1040 ------- 0 0.0 1.0 86 162
- 0.66216 0 1 tcp 1040 ------- 0 0.0 1.0 86 162
r 0.6628 0 1 tcp 1040 ------- 0 0.0 1.0 76 142
+ 0.6628 1 0 ack 40 ------- 0 1.0 0.0 76 163
- 0.6628 1 0 ack 40 ------- 0 1.0 0.0 76 163
r 0.6632 1 0 ack 40 ------- 0 1.0 0.0 67 145
+ 0.6632 0 1 tcp 1040 ------- 0 0.0 1.0 87 164
- 0.6632 0 1 tcp 1040 ------- 0 0.0 1.0 87 164
r 0.66384 0 1 tcp 1040 ------- 0 0.0 1.0 77 144
+ 0.66384 1 0 ack 40 ------- 0 1.0 0.0 77 165
- 0.66384 1 0 ack 40 ------- 0 1.0 0.0 77 165
r 0.66424 1 0 ack 40 ------- 0 1.0 0.0 68 147
+ 0.66424 0 1 tcp 1040 ------- 0 0.0 1.0 88 166
- 0.66424 0 1 tcp 1040 ------- 0 0.0 1.0 88 166
r 0.66488 0 1 tcp 1040 ------- 0 0.0 1.0 78 146
+ 0.66488 1 0 ack 40 ------- 0 1.0 0.0 78 167
- 0.66488 1 0 ack 40 ------- 0 1.0 0.0 78 167
r 0.66528 1 0 ack 40 ------- 0 1.0 0.0 69 149
+ 0.66528 0 1 tcp 1040 ------- 0 0.0 1.0 89 168
- 0.66528 0 1 tcp 1040 ------- 0 0.0 1.0 89 168
r 0.66592 0 1 tcp 1040 ------- 0 0.0 1.0 79 148
+ 0.66592 1 0 ack 40 ------- 0 1.0 0.0 79 169
- 0.66592 1 0 ack 40 ------- 0 1.0 0.0 79 169
r 0.66632 1 0 ack 40 ------- 0 1.0 0.0 70 151
+ 0.66632 0 1 tcp 1040 ------- 0 0.0 1.0 90 170
- 0.66632 0 1 tcp 1040 ------- 0 0.0 1.0 90 170
r 0.66696 0 1 tcp 1040 ------- 0 0.0 1.0 80 150
+ 0.66696 1 0 ack 40 ------- 0 1.0 0.0 80 171
- 0.66696 1 0 ack 40 ------- 0 1.0 0.0 80 171
r 0.66764 1 0 ack 40 ------- 0 1.0 0.0 71 153
+ 0.66764 0 1 tcp 1040 ------- 0 0.0 1.0 91 172
- 0.66764 0 1 tcp 1040 ------- 0 0.0 1.0 91 172
r 0.668 0 1 tcp 1040 ------- 0 0.0 1.0 81 152
+ 0.668 1 0 ack 40 ------- 0 1.0 0.0 81 173
- 0.668 1 0 ack 40 ------- 0 1.0 0.0 81 173
r 0.66868 1 0 ack 40 ------- 0 1.0 0.0 72 155
+ 0.66868 0 1 tcp 1040 ------- 0 0.0 1.0 92 174
- 0.66868 0 1 tcp 1040 ------- 0 0.0 1.0 92 174
r 0.66904 0 1 tcp 1040 ------- 0 0.0 1.0 82 154
+ 0.66904 1 0 ack 40 ------- 0 1.0 0.0 82 175
- 0.66904 1 0 ack 40 ------- 0 1.0 0.0 82 175
r 0.66972 1 0 ack 40 ------- 0 1.0 0.0 73 157
+ 0.66972 0 1 tcp 1040 ------- 0 0.0 1.0 93 176
- 0.66972 0 1 tcp 1040 ------- 0 0.0 1.0 93 176
r 0.67008 0 1 tcp 1040 ------- 0 0.0 1.0 83 156
+ 0.67008 1 0 ack 40 ------- 0 1.0 0.0 83 177
- 0.67008 1 0 ack 40 ------- 0 1.0 0.0 83 177
r 0.67076 1 0 ack 40 ------- 0 1.0 0.0 74 159
+ 0.67076 0 1 tcp 1040 ------- 0 0.0 1.0 94 178
- 0.67076 0 1 tcp 1040 ------- 0 0.0 1.0 94 178
r 0.67112 0 1 tcp 1040 ------- 0 0.0 1.0 84 158
+ 0.67112 1 0 ack 40 ------- 0 1.0 0.0 84 179
- 0.67112 1 0 ack 40 ------- 0 1.0 0.0 84 179
r 0.6718 1 0 ack 40 ------- 0 1.0 0.0 75 161
+ 0.6718 0 1 tcp 1040 ------- 0 0.0 1.0 95 180
- 0.6718 0 1 tcp 1040 ------- 0 0.0 1.0 95 180
r 0.67216 0 1 tcp 1040 ------- 0 0.0 1.0 85 160
+ 0.67216 1 0 ack 40 ------- 0 1.0 0.0 85 181
- 0.67216 1 0 ack 40 ------- 0 1.0 0.0 85 181
r 0.67284 1 0 ack 40 ------- 0 1.0 0.0 76 163
+ 0.67284 0 1 tcp 1040 ------- 0 0.0 1.0 96 182
- 0.67284 0 1 tcp 1040 ------- 0 0.0 1.0 96 182
r 0.6732 0 1 tcp 1040 ------- 0 0.0 1.0 86 162
+ 0.6732 1 0 ack 40 ------- 0 1.0 0.0 86 183
- 0.6732 1 0 ack 40 ------- 0 1.0 0.0 86 183
r 0.67388 1 0 ack 40 ------- 0 1.0 0.0 77 165
+ 0.67388 0 1 tcp 1040 ------- 0 0.0 1.0 97 184
- 0.67388 0 1 tcp 1040 ------- 0 0.0 1.0 97 184
r 0.67424 0 1 tcp 1040 ------- 0 0.0 1.0 87 164
+ 0.67424 1 0 ack 40 ------- 0 1.0 0.0 87 185
- 0.67424 1 0 ack 40 ------- 0 1.0 0.0 87 185
r 0.67492 1 0 ack 40 ------- 0 1.0 0.0 78 167
+ 0.67492 0 1 tcp 1040 ------- 0 0.0 1.0 98 186
- 0.67492 0 1 tcp 1040 ------- 0 0.0 1.0 98 186
r 0.67528 0 1 tcp 1040 ------- 0 0.0 1.0 88 166
+ 0.67528 1 0 ack 40 ------- 0 1.0 0.0 88 187
- 0.67528 1 0 ack 40 ------- 0 1.0 0.0 88 187
r 0.67596 1 0 ack 40 ------- 0 1.0 0.0 79 169
+ 0.67596 0 1 tcp 1040 ------- 0 0.0 1.0 99 188
- 0.67596 0 1 tcp 1040 ------- 0 0.0 1.0 99 188
r 0.67632 0 1 tcp 1040 ------- 0 0.0 1.0 89 168
+ 0.67632 1 0 ack 40 ------- 0 1.0 0.0 89 189
- 0.67632 1 0 ack 40 ------- 0 1.0 0.0 89 189
r 0.677 1 0 ack 40 ------- 0 1.0 0.0 80 171
+ 0.677 0 1 tcp 1040 ------- 0 0.0 1.0 100 190
- 0.677 0 1 tcp 1040 ------- 0 0.0 1.0 100 190
r 0.67736 0 1 tcp 1040 ------- 0 0.0 1.0 90 170
+ 0.67736 1 0 ack 40 ------- 0 1.0 0.0 90 191
- 0.67736 1 0 ack 40 ------- 0 1.0 0.0 90 191
r 0.67804 1 0 ack 40 ------- 0 1.0 0.0 81 173
+ 0.67804 0 1 tcp 1040 ------- 0 0.0 1.0 101 192
- 0.67804 0 1 tcp 1040 ------- 0 0.0 1.0 101 192
r 0.67868 0 1 tcp 1040 ------- 0 0.0 1.0 91 172
+ 0.67868 1 0 ack 40 ------- 0 1.0 0.0 91 193
- 0.67868 1 0 ack 40 ------- 0 1.0 0.0 91 193
r 0.67908 1 0 ack 40 ------- 0 1.0 0.0 82 175
+ 0.67908 0 1 tcp 1040 ------- 0 0.0 1.0 102 194
- 0.67908 0 1 tcp 1040 ------- 0 0.0 1.0 102 194
r 0.67972 0 1 tcp 1040 ------- 0 0.0 1.0 92 174
+ 0.67972 1 0 ack 40 ------- 0 1.0 0.0 92 195
- 0.67972 1 0 ack 40 ------- 0 1.0 0.0 92 195
r 0.68012 1 0 ack 40 ------- 0 1.0 0.0 83 177
+ 0.68012 0 1 tcp 1040 ------- 0 0.0 1.0 103 196
- 0.68012 0 1 tcp 1040 ------- 0 0.0 1.0 103 196
r 0.68076 0 1 tcp 1040 ------- 0 0.0 1.0 93 176
+ 0.68076 1 0 ack 40 ------- 0 1.0 0.0 93 197
- 0.68076 1 0 ack 40 ------- 0 1.0 0.0 93 197
r 0.68116 1 0 ack 40 ------- 0 1.0 0.0 84 179
+ 0.68116 0 1 tcp 1040 ------- 0 0.0 1.0 104 198
- 0.68116 0 1 tcp 1040 ------- 0 0.0 1.0 104 198
r 0.6818 0 1 tcp 1040 ------- 0 0.0 1.0 94 178
+ 0.6818 1 0 ack 40 ------- 0 1.0 0.0 94 199
- 0.6818 1 0 ack 40 ------- 0 1.0 0.0 94 199
r 0.6822 1 0 ack 40 ------- 0 1.0 0.0 85 181
+ 0.6822 0 1 tcp 1040 ------- 0 0.0 1.0 105 200
- 0.6822 0 1 tcp 1040 ------- 0 0.0 1.0 105 200
r 0.68284 0 1 tcp 1040 ------- 0 0.0 1.0 95 180
+ 0.68284 1 0 ack 40 ------- 0 1.0 0.0 95 201
- 0.68284 1 0 ack 40 ------- 0 1.0 0.0 95 201
r 0.68324 1 0 ack 40 ------- 0 1.0 0.0 86 183
+ 0.68324 0 1 tcp 1040 ------- 0 0.0 1.0 106 202
- 0.68324 0 1 tcp 1040 ------- 0 0.0 1.0 106 202
r 0.68388 0 1 tcp 1040 ------- 0 0.0 1.0 96 182
+ 0.68388 1 0 ack 40 ------- 0 1.0 0.0 96 203
- 0.68388 1 0 ack 40 ------- 0 1.0 0.0 96 203
r 0.68428 1 0 ack 40 ------- 0 1.0 0.0 87 185
+ 0.68428 0 1 tcp 1040 ------- 0 0.0 1.0 107 204
- 0.68428 0 1 tcp 1040 ------- 0 0.0 1.0 107 204
r 0.68492 0 1 tcp 1040 ------- 0 0.0 1.0 97 184
+ 0.68492 1 0 ack 40 ------- 0 1.0 0.0 97 205
- 0.68492 1 0 ack 40 ------- 0 1.0 0.0 97 205
r 0.68532 1 0 ack 40 ------- 0 1.0 0.0 88 187
+ 0.68532 0 1 tcp 1040 ------- 0 0.0 1.0 108 206
- 0.68532 0 1 tcp 1040 ------- 0 0.0 1.0 108 206
r 0.68596 0 1 tcp 1040 ------- 0 0.0 1.0 98 186
+ 0.68596 1 0 ack 40 ------- 0 1.0 0.0 98 207
- 0.68596 1 0 ack 40 ------- 0 1.0 0.0 98 207
r 0.68636 1 0 ack 40 ------- 0 1.0 0.0 89 189
+ 0.68636 0 1 tcp 1040 ------- 0 0.0 1.0 109 208
- 0.68636 0 1 tcp 1040 ------- 0 0.0 1.0 109 208
r 0.687 0 1 tcp 1040 ------- 0 0.0 1.0 99 188
+ 0.687 1 0 ack 40 ------- 0 1.0 0.0 99 209
- 0.687 1 0 ack 40 ------- 0 1.0 0.0 99 209
r 0.6874 1 0 ack 40 ------- 0 1.0 0.0 90 191
+ 0.6874 0 1 tcp 1040 ------- 0 0.0 1.0 110 210
- 0.6874 0 1 tcp 1040 ------- 0 0.0 1.0 110 210
r 0.68804 0 1 tcp 1040 ------- 0 0.0 1.0 100 190
+ 0.68804 1 0 ack 40 ------- 0 1.0 0.0 100 211
- 0.68804 1 0 ack 40 ------- 0 1.0 0.0 100 211
r 0.68872 1 0 ack 40 ------- 0 1.0 0.0 91 193
+ 0.68872 0 1 tcp 1040 ------- 0 0.0 1.0 111 212
- 0.68872 0 1 tcp 1040 ------- 0 0.0 1.0 111 212
r 0.68908 0 1 tcp 1040 ------- 0 0.0 1.0 101 192
+ 0.68908 1 0 ack 40 ------- 0 1.0 0.0 101 213
- 0.68908 1 0 ack 40 ------- 0 1.0 0.0 101 213
r 0.68976 1 0 ack 40 ------- 0 1.0 0.0 92 195
+ 0.68976 0 1 tcp 1040 ------- 0 0.0 1.0 112 214
- 0.68976 0 1 tcp 1040 ------- 0 0.0 1.0 112 214
r 0.69012 0 1 tcp 1040 ------- 0 0.0 1.0 102 194
+ 0.69012 1 0 ack 40 ------- 0 1.0 0.0 102 215
- 0.69012 1 0 ack 40 ------- 0 1.0 0.0 102 215
r 0.6908 1 0 ack 40 ------- 0 1.0 0.0 93 197
+ 0.6908 0 1 tcp 1040 ------- 0 0.0 1.0 113 216
- 0.6908 0 1 tcp 1040 ------- 0 0.0 1.0 113 216
r 0.69116 0 1 tcp 1040 ------- 0 0.0 1.0 103 196
+ 0.69116 1 0 ack 40 ------- 0 1.0 0.0 103 217
- 0.69116 1 0 ack 40 ------- 0 1.0 0.0 103 217
r 0.69184 1 0 ack 40 ------- 0 1.0 0.0 94 199
+ 0.69184 0 1 tcp 1040 ------- 0 0.0 1.0 114 218
- 0.69184 0 1 tcp 1040 ------- 0 0.0 1.0 114 218
r 0.6922 0 1 tcp 1040 ------- 0 0.0 1.0 104 198
+ 0.6922 1 0 ack 40 ------- 0 1.0 0.0 104 219
- 0.6922 1 0 ack 40 ------- 0 1.0 0.0 104 219
r 0.69288 1 0 ack 40 ------- 0 1.0 0.0 95 201
+ 0.69288 0 1 tcp 1040 ------- 0 0.0 1.0 115 220
- 0.69288 0 1 tcp 1040 ------- 0 0.0 1.0 115 220
r 0.69324 0 1 tcp 1040 ------- 0 0.0 1.0 105 200
+ 0.69324 1 0 ack 40 ------- 0 1.0 0.0 105 221
- 0.69324 1 0 ack 40 ------- 0 1.0 0.0 105 221
r 0.69392 1 0 ack 40 ------- 0 1.0 0.0 96 203
+ 0.69392 0 1 tcp 1040 ------- 0 0.0 1.0 116 222