V -t * -v 1.0a5 -a 0
A -t * -n 1 -p 0 -o 0x7fffffff -c 30 -a 1
A -t * -h 1 -m 1073741823 -s 0
n -t * -a 4 -s 4 -S UP -v circle -c black -i black
n -t * -a 0 -s 0 -S UP -v circle -c black -i black
n -t * -a 5 -s 5 -S UP -v circle -c black -i black
n -t * -a 1 -s 1 -S UP -v circle -c black -i black
n -t * -a 2 -s 2 -S UP -v circle -c black -i black
n -t * -a 3 -s 3 -S UP -v circle -c black -i black
l -t * -s 0 -d 2 -S UP -r 8000000 -D 0.01 -c black
l -t * -s 1 -d 2 -S UP -r 8000000 -D 0.01 -c black
l -t * -s 3 -d 4 -S UP -r 8000000 -D 0.01 -c black
l -t * -s 3 -d 5 -S UP -r 8000000 -D 0.01 -c black
l -t * -s 2 -d 3 -S UP -r 800000 -D 0.001 -c black
+ -t 0.1 -s 0 -d 2 -p cbr -e 210 -c 0 -i 0 -a 0 -x {0.0 5.0 0 ------- null}
- -t 0.1 -s 0 -d 2 -p cbr -e 210 -c 0 -i 0 -a 0 -x {0.0 5.0 0 ------- null}
h -t 0.1 -s 0 -d 2 -p cbr -e 210 -c 0 -i 0 -a 0 -x {0.0 5.0 -1 ------- null}
+ -t 0.10375 -s 0 -d 2 -p cbr -e 210 -c 0 -i 1 -a 0 -x {0.0 5.0 1 ------- null}
- -t 0.10375 -s 0 -d 2 -p cbr -e 210 -c 0 -i 1 -a 0 -x {0.0 5.0 1 ------- null}
h -t 0.10375 -s 0 -d 2 -p cbr -e 210 -c 0 -i 1 -a 0 -x {0.0 5.0 -1 ------- null}
+ -t 0.1075 -s 0 -d 2 -p cbr -e 210 -c 0 -i 2 -a 0 -x {0.0 5.0 2 ------- null}
- -t 0.1075 -s 0 -d 2 -p cbr -e 210 -c 0 -i 2 -a 0 -x {0.0 5.0 2 ------- null}
h -t 0.1075 -s 0 -d 2 -p cbr -e 210 -c 0 -i 2 -a 0 -x {0.0 5.0 -1 ------- null}
r -t 0.11021 -s 0 -d 2 -p cbr -e 210 -c 0 -i 0 -a 0 -x {0.0 5.0 0 ------- null}
+ -t 0.11021 -s 2 -d 3 -p cbr -e 210 -c 0 -i 0 -a 0 -x {0.0 5.0 0 ------- null}
- -t 0.11021 -s 2 -d 3 -p cbr -e 210 -c 0 -i 0 -a 0 -x {0.0 5.0 0 ------- null}
h -t 0.11021 -s 2 -d 3 -p cbr -e 210 -c 0 -i 0 -a 0 -x {0.0 5.0 -1 ------- null}
+ -t 0.11125 -s 0 -d 2 -p cbr -e 210 -c 0 -i 3 -a 0 -x {0.0 5.0 3 ------- null}
- -t 0.11125 -s 0 -d 2 -p cbr -e 210 -c 0 -i 3 -a 0 -x {0.0 5.0 3 ------- null}
h -t 0.11125 -s 0 -d 2 -p cbr -e 210 -c 0 -i 3 -a 0 -x {0.0 5.0 -1 ------- null}
r -t 0.11331 -s 2 -d 3 -p cbr -e 210 -c 0 -i 0 -a 0 -x {0.0 5.0 0 ------- null}
+ -t 0.11331 -s 3 -d 5 -p cbr -e 210 -c 0 -i 0 -a 0 -x {0.0 5.0 0 ------- null}
- -t 0.11331 -s 3 -d 5 -p cbr -e 210 -c 0 -i 0 -a 0 -x {0.0 5.0 0 ------- null}
h -t 0.11331 -s 3 -d 5 -p cbr -e 210 -c 0 -i 0 -a 0 -x {0.0 5.0 -1 ------- null}
r -t 0.11396 -s 0 -d 2 -p cbr -e 210 -c 0 -i 1 -a 0 -x {0.0 5.0 1 ------- null}
+ -t 0.11396 -s 2 -d 3 -p cbr -e 210 -c 0 -i 1 -a 0 -x {0.0 5.0 1 ------- null}
- -t 0.11396 -s 2 -d 3 -p cbr -e 210 -c 0 -i 1 -a 0 -x {0.0 5.0 1 ------- null}
h -t 0.11396 -s 2 -d 3 -p cbr -e 210 -c 0 -i 1 -a 0 -x {0.0 5.0 -1 ------- null}
+ -t 0.115 -s 0 -d 2 -p cbr -e 210 -c 0 -i 4 -a 0 -x {0.0 5.0 4 ------- null}
- -t 0.115 -s 0 -d 2 -p cbr -e 210 -c 0 -i 4 -a 0 -x {0.0 5.0 4 ------- null}
h -t 0.115 -s 0 -d 2 -p cbr -e 210 -c 0 -i 4 -a 0 -x {0.0 5.0 -1 ------- null}
r -t 0.11706 -s 2 -d 3 -p cbr -e 210 -c 0 -i 1 -a 0 -x {0.0 5.0 1 ------- null}
+ -t 0.11706 -s 3 -d 5 -p cbr -e 210 -c 0 -i 1 -a 0 -x {0.0 5.0 1 ------- null}
- -t 0.11706 -s 3 -d 5 -p cbr -e 210 -c 0 -i 1 -a 0 -x {0.0 5.0 1 ------- null}
h -t 0.11706 -s 3 -d 5 -p cbr -e 210 -c 0 -i 1 -a 0 -x {0.0 5.0 -1 ------- null}
r -t 0.11771 -s 0 -d 2 -p cbr -e 210 -c 0 -i 2 -a 0 -x {0.0 5.0 2 ------- null}
+ -t 0.11771 -s 2 -d 3 -p cbr -e 210 -c 0 -i 2 -a 0 -x {0.0 5.0 2 ------- null}
- -t 0.11771 -s 2 -d 3 -p cbr -e 210 -c 0 -i 2 -a 0 -x {0.0 5.0 2 ------- null}
h -t 0.11771 -s 2 -d 3 -p cbr -e 210 -c 0 -i 2 -a 0 -x {0.0 5.0 -1 ------- null}
+ -t 0.11875 -s 0 -d 2 -p cbr -e 210 -c 0 -i 5 -a 0 -x {0.0 5.0 5 ------- null}
- -t 0.11875 -s 0 -d 2 -p cbr -e 210 -c 0 -i 5 -a 0 -x {0.0 5.0 5 ------- null}
h -t 0.11875 -s 0 -d 2 -p cbr -e 210 -c 0 -i 5 -a 0 -x {0.0 5.0 -1 ------- null}
r -t 0.12081 -s 2 -d 3 -p cbr -e 210 -c 0 -i 2 -a 0 -x {0.0 5.0 2 ------- null}
+ -t 0.12081 -s 3 -d 5 -p cbr -e 210 -c 0 -i 2 -a 0 -x {0.0 5.0 2 ------- null}
- -t 0.12081 -s 3 -d 5 -p cbr -e 210 -c 0 -i 2 -a 0 -x {0.0 5.0 2 ------- null}
h -t 0.12081 -s 3 -d 5 -p cbr -e 210 -c 0 -i 2 -a 0 -x {0.0 5.0 -1 ------- null}
r -t 0.12146 -s 0 -d 2 -p cbr -e 210 -c 0 -i 3 -a 0 -x {0.0 5.0 3 ------- null}
+ -t 0.12146 -s 2 -d 3 -p cbr -e 210 -c 0 -i 3 -a 0 -x {0.0 5.0 3 ------- null}
- -t 0.12146 -s 2 -d 3 -p cbr -e 210 -c 0 -i 3 -a 0 -x {0.0 5.0 3 ------- null}
h -t 0.12146 -s 2 -d 3 -p cbr -e 210 -c 0 -i 3 -a 0 -x {0.0 5.0 -1 ------- null}
+ -t 0.1225 -s 0 -d 2 -p cbr -e 210 -c 0 -i 6 -a 0 -x {0.0 5.0 6 ------- null}
- -t 0.1225 -s 0 -d 2 -p cbr -e 210 -c 0 -i 6 -a 0 -x {0.0 5.0 6 ------- null}
h -t 0.1225 -s 0 -d 2 -p cbr -e 210 -c 0 -i 6 -a 0 -x {0.0 5.0 -1 ------- null}
r -t 0.12352 -s 3 -d 5 -p cbr -e 210 -c 0 -i 0 -a 0 -x {0.0 5.0 0 ------- null}
r -t 0.12456 -s 2 -d 3 -p cbr -e 210 -c 0 -i 3 -a 0 -x {0.0 5.0 3 ------- null}
+ -t 0.12456 -s 3 -d 5 -p cbr -e 210 -c 0 -i 3 -a 0 -x {0.0 5.0 3 ------- null}
- -t 0.12456 -s 3 -d 5 -p cbr -e 210 -c 0 -i 3 -a 0 -x {0.0 5.0 3 ------- null}
h -t 0.12456 -s 3 -d 5 -p cbr -e 210 -c 0 -i 3 -a 0 -x {0.0 5.0 -1 ------- null}
r -t 0.12521 -s 0 -d 2 -p cbr -e 210 -c 0 -i 4 -a 0 -x {0.0 5.0 4 ------- null}
+ -t 0.12521 -s 2 -d 3 -p cbr -e 210 -c 0 -i 4 -a 0 -x {0.0 5.0 4 ------- null}
- -t 0.12521 -s 2 -d 3 -p cbr -e 210 -c 0 -i 4 -a 0 -x {0.0 5.0 4 ------- null}
h -t 0.12521 -s 2 -d 3 -p cbr -e 210 -c 0 -i 4 -a 0 -x {0.0 5.0 -1 ------- null}
+ -t 0.12625 -s 0 -d 2 -p cbr -e 210 -c 0 -i 7 -a 0 -x {0.0 5.0 7 ------- null}
- -t 0.12625 -s 0 -d 2 -p cbr -e 210 -c 0 -i 7 -a 0 -x {0.0 5.0 7 ------- null}
h -t 0.12625 -s 0 -d 2 -p cbr -e 210 -c 0 -i 7 -a 0 -x {0.0 5.0 -1 ------- null}
r -t 0.12727 -s 3 -d 5 -p cbr -e 210 -c 0 -i 1 -a 0 -x {0.0 5.0 1 ------- null}
r -t 0.12831 -s 2 -d 3 -p cbr -e 210 -c 0 -i 4 -a 0 -x {0.0 5.0 4 ------- null}
+ -t 0.12831 -s 3 -d 5 -p cbr -e 210 -c 0 -i 4 -a 0 -x {0.0 5.0 4 ------- null}
- -t 0.12831 -s 3 -d 5 -p cbr -e 210 -c 0 -i 4 -a 0 -x {0.0 5.0 4 ------- null}
h -t 0.12831 -s 3 -d 5 -p cbr -e 210 -c 0 -i 4 -a 0 -x {0.0 5.0 -1 ------- null}
r -t 0.12896 -s 0 -d 2 -p cbr -e 210 -c 0 -i 5 -a 0 -x {0.0 5.0 5 ------- null}
+ -t 0.12896 -s 2 -d 3 -p cbr -e 210 -c 0 -i 5 -a 0 -x {0.0 5.0 5 ------- null}
- -t 0.12896 -s 2 -d 3 -p cbr -e 210 -c 0 -i 5 -a 0 -x {0.0 5.0 5 ------- null}
h -t 0.12896 -s 2 -d 3 -p cbr -e 210 -c 0 -i 5 -a 0 -x {0.0 5.0 -1 ------- null}
+ -t 0.13 -s 0 -d 2 -p cbr -e 210 -c 0 -i 8 -a 0 -x {0.0 5.0 8 ------- null}
- -t 0.13 -s 0 -d 2 -p cbr -e 210 -c 0 -i 8 -a 0 -x {0.0 5.0 8 ------- null}
h -t 0.13 -s 0 -d 2 -p cbr -e 210 -c 0 -i 8 -a 0 -x {0.0 5.0 -1 ------- null}
r -t 0.13102 -s 3 -d 5 -p cbr -e 210 -c 0 -i 2 -a 0 -x {0.0 5.0 2 ------- null}
r -t 0.13206 -s 2 -d 3 -p cbr -e 210 -c 0 -i 5 -a 0 -x {0.0 5.0 5 ------- null}
+ -t 0.13206 -s 3 -d 5 -p cbr -e 210 -c 0 -i 5 -a 0 -x {0.0 5.0 5 ------- null}
- -t 0.13206 -s 3 -d 5 -p cbr -e 210 -c 0 -i 5 -a 0 -x {0.0 5.0 5 ------- null}
h -t 0.13206 -s 3 -d 5 -p cbr -e 210 -c 0 -i 5 -a 0 -x {0.0 5.0 -1 ------- null}
r -t 0.13271 -s 0 -d 2 -p cbr -e 210 -c 0 -i 6 -a 0 -x {0.0 5.0 6 ------- null}
+ -t 0.13271 -s 2 -d 3 -p cbr -e 210 -c 0 -i 6 -a 0 -x {0.0 5.0 6 ------- null}
- -t 0.13271 -s 2 -d 3 -p cbr -e 210 -c 0 -i 6 -a 0 -x {0.0 5.0 6 ------- null}
h -t 0.13271 -s 2 -d 3 -p cbr -e 210 -c 0 -i 6 -a 0 -x {0.0 5.0 -1 ------- null}
+ -t 0.13375 -s 0 -d 2 -p cbr -e 210 -c 0 -i 9 -a 0 -x {0.0 5.0 9 ------- null}
- -t 0.13375 -s 0 -d 2 -p cbr -e 210 -c 0 -i 9 -a 0 -x {0.0 5.0 9 ------- null}
h -t 0.13375 -s 0 -d 2 -p cbr -e 210 -c 0 -i 9 -a 0 -x {0.0 5.0 -1 ------- null}
r -t 0.13477 -s 3 -d 5 -p cbr -e 210 -c 0 -i 3 -a 0 -x {0.0 5.0 3 ------- null}
r -t 0.13581 -s 2 -d 3 -p cbr -e 210 -c 0 -i 6 -a 0 -x {0.0 5.0 6 ------- null}
+ -t 0.13581 -s 3 -d 5 -p cbr -e 210 -c 0 -i 6 -a 0 -x {0.0 5.0 6 ------- null}
- -t 0.13581 -s 3 -d 5 -p cbr -e 210 -c 0 -i 6 -a 0 -x {0.0 5.0 6 ------- null}
h -t 0.13581 -s 3 -d 5 -p cbr -e 210 -c 0 -i 6 -a 0 -x {0.0 5.0 -1 ------- null}
r -t 0.13646 -s 0 -d 2 -p cbr -e 210 -c 0 -i 7 -a 0 -x {0.0 5.0 7 ------- null}
+ -t 0.13646 -s 2 -d 3 -p cbr -e 210 -c 0 -i 7 -a 0 -x {0.0 5.0 7 ------- null}
- -t 0.13646 -s 2 -d 3 -p cbr -e 210 -c 0 -i 7 -a 0 -x {0.0 5.0 7 ------- null}
h -t 0.13646 -s 2 -d 3 -p cbr -e 210 -c 0 -i 7 -a 0 -x {0.0 5.0 -1 ------- null}
+ -t 0.1375 -s 0 -d 2 -p cbr -e 210 -c 0 -i 10 -a 0 -x {0.0 5.0 10 ------- null}
- -t 0.1375 -s 0 -d 2 -p cbr -e 210 -c 0 -i 10 -a 0 -x {0.0 5.0 10 ------- null}
h -t 0.1375 -s 0 -d 2 -p cbr -e 210 -c 0 -i 10 -a 0 -x {0.0 5.0 -1 ------- null}
r -t 0.13852 -s 3 -d 5 -p cbr -e 210 -c 0 -i 4 -a 0 -x {0.0 5.0 4 ------- null}
r -t 0.13956 -s 2 -d 3 -p cbr -e 210 -c 0 -i 7 -a 0 -x {0.0 5.0 7 ------- null}
+ -t 0.13956 -s 3 -d 5 -p cbr -e 210 -c 0 -i 7 -a 0 -x {0.0 5.0 7 ------- null}
- -t 0.13956 -s 3 -d 5 -p cbr -e 210 -c 0 -i 7 -a 0 -x {0.0 5.0 7 ------- null}
h -t 0.13956 -s 3 -d 5 -p cbr -e 210 -c 0 -i 7 -a 0 -x {0.0 5.0 -1 ------- null}
r -t 0.14021 -s 0 -d 2 -p cbr -e 210 -c 0 -i 8 -a 0 -x {0.0 5.0 8 ------- null}
+ -t 0.14021 -s 2 -d 3 -p cbr -e 210 -c 0 -i 8 -a 0 -x {0.0 5.0 8 ------- null}
- -t 0.14021 -s 2 -d 3 -p cbr -e 210 -c 0 -i 8 -a 0 -x {0.0 5.0 8 ------- null}
h -t 0.14021 -s 2 -d 3 -p cbr -e 210 -c 0 -i 8 -a 0 -x {0.0 5.0 -1 ------- null}
+ -t 0.14125 -s 0 -d 2 -p cbr -e 210 -c 0 -i 11 -a 0 -x {0.0 5.0 11 ------- null}
- -t 0.14125 -s 0 -d 2 -p cbr -e 210 -c 0 -i 11 -a 0 -x {0.0 5.0 11 ------- null}
h -t 0.14125 -s 0 -d 2 -p cbr -e 210 -c 0 -i 11 -a 0 -x {0.0 5.0 -1 ------- null}
r -t 0.14227 -s 3 -d 5 -p cbr -e 210 -c 0 -i 5 -a 0 -x {0.0 5.0 5 ------- null}
r -t 0.14331 -s 2 -d 3 -p cbr -e 210 -c 0 -i 8 -a 0 -x {0.0 5.0 8 ------- null}
+ -t 0.14331 -s 3 -d 5 -p cbr -e 210 -c 0 -i 8 -a 0 -x {0.0 5.0 8 ------- null}
- -t 0.14331 -s 3 -d 5 -p cbr -e 210 -c 0 -i 8 -a 0 -x {0.0 5.0 8 ------- null}
h -t 0.14331 -s 3 -d 5 -p cbr -e 210 -c 0 -i 8 -a 0 -x {0.0 5.0 -1 ------- null}
r -t 0.14396 -s 0 -d 2 -p cbr -e 210 -c 0 -i 9 -a 0 -x {0.0 5.0 9 ------- null}
+ -t 0.14396 -s 2 -d 3 -p cbr -e 210 -c 0 -i 9 -a 0 -x {0.0 5.0 9 ------- null}
- -t 0.14396 -s 2 -d 3 -p cbr -e 210 -c 0 -i 9 -a 0 -x {0.0 5.0 9 ------- null}
h -t 0.14396 -s 2 -d 3 -p cbr -e 210 -c 0 -i 9 -a 0 -x {0.0 5.0 -1 ------- null}
+ -t 0.145 -s 0 -d 2 -p cbr -e 210 -c 0 -i 12 -a 0 -x {0.0 5.0 12 ------- null}
- -t 0.145 -s 0 -d 2 -p cbr -e 210 -c 0 -i 12 -a 0 -x {0.0 5.0 12 ------- null}
h -t 0.145 -s 0 -d 2 -p cbr -e 210 -c 0 -i 12 -a 0 -x {0.0 5.0 -1 ------- null}
r -t 0.14602 -s 3 -d 5 -p cbr -e 210 -c 0 -i 6 -a 0 -x {0.0 5.0 6 ------- null}
r -t 0.14706 -s 2 -d 3 -p cbr -e 210 -c 0 -i 9 -a 0 -x {0.0 5.0 9 ------- null}
+ -t 0.14706 -s 3 -d 5 -p cbr -e 210 -c 0 -i 9 -a 0 -x {0.0 5.0 9 ------- null}
- -t 0.14706 -s 3 -d 5 -p cbr -e 210 -c 0 -i 9 -a 0 -x {0.0 5.0 9 ------- null}
h -t 0.14706 -s 3 -d 5 -p cbr -e 210 -c 0 -i 9 -a 0 -x {0.0 5.0 -1 ------- null}
r -t 0.14771 -s 0 -d 2 -p cbr -e 210 -c 0 -i 10 -a 0 -x {0.0 5.0 10 ------- null}
+ -t 0.14771 -s 2 -d 3 -p cbr -e 210 -c 0 -i 10 -a 0 -x {0.0 5.0 10 ------- null}
- -t 0.14771 -s 2 -d 3 -p cbr -e 210 -c 0 -i 10 -a 0 -x {0.0 5.0 10 ------- null}
h -t 0.14771 -s 2 -d 3 -p cbr -e 210 -c 0 -i 10 -a 0 -x {0.0 5.0 -1 ------- null}
+ -t 0.14875 -s 0 -d 2 -p cbr -e 210 -c 0 -i 13 -a 0 -x {0.0 5.0 13 ------- null}
- -t 0.14875 -s 0 -d 2 -p cbr -e 210 -c 0 -i 13 -a 0 -x {0.0 5.0 13 ------- null}
h -t 0.14875 -s 0 -d 2 -p cbr -e 210 -c 0 -i 13 -a 0 -x {0.0 5.0 -1 ------- null}
r -t 0.14977 -s 3 -d 5 -p cbr -e 210 -c 0 -i 7 -a 0 -x {0.0 5.0 7 ------- null}
r -t 0.15081 -s 2 -d 3 -p cbr -e 210 -c 0 -i 10 -a 0 -x {0.0 5.0 10 ------- null}
+ -t 0.15081 -s 3 -d 5 -p cbr -e 210 -c 0 -i 10 -a 0 -x {0.0 5.0 10 ------- null}
- -t 0.15081 -s 3 -d 5 -p cbr -e 210 -c 0 -i 10 -a 0 -x {0.0 5.0 10 ------- null}
h -t 0.15081 -s 3 -d 5 -p cbr -e 210 -c 0 -i 10 -a 0 -x {0.0 5.0 -1 ------- null}
r -t 0.15146 -s 0 -d 2 -p cbr -e 210 -c 0 -i 11 -a 0 -x {0.0 5.0 11 ------- null}
+ -t 0.15146 -s 2 -d 3 -p cbr -e 210 -c 0 -i 11 -a 0 -x {0.0 5.0 11 ------- null}
- -t 0.15146 -s 2 -d 3 -p cbr -e 210 -c 0 -i 11 -a 0 -x {0.0 5.0 11 ------- null}
h -t 0.15146 -s 2 -d 3 -p cbr -e 210 -c 0 -i 11 -a 0 -x {0.0 5.0 -1 ------- null}
+ -t 0.1525 -s 0 -d 2 -p cbr -e 210 -c 0 -i 14 -a 0 -x {0.0 5.0 14 ------- null}
- -t 0.1525 -s 0 -d 2 -p cbr -e 210 -c 0 -i 14 -a 0 -x {0.0 5.0 14 ------- null}
h -t 0.1525 -s 0 -d 2 -p cbr -e 210 -c 0 -i 14 -a 0 -x {0.0 5.0 -1 ------- null}
r -t 0.15352 -s 3 -d 5 -p cbr -e 210 -c 0 -i 8 -a 0 -x {0.0 5.0 8 ------- null}
r -t 0.15456 -s 2 -d 3 -p cbr -e 210 -c 0 -i 11 -a 0 -x {0.0 5.0 11 ------- null}
+ -t 0.15456 -s 3 -d 5 -p cbr -e 210 -c 0 -i 11 -a 0 -x {0.0 5.0 11 ------- null}
- -t 0.15456 -s 3 -d 5 -p cbr -e 210 -c 0 -i 11 -a 0 -x {0.0 5.0 11 ------- null}
h -t 0.15456 -s 3 -d 5 -p cbr -e 210 -c 0 -i 11 -a 0 -x {0.0 5.0 -1 ------- null}
r -t 0.15521 -s 0 -d 2 -p cbr -e 210 -c 0 -i 12 -a 0 -x {0.0 5.0 12 ------- null}
+ -t 0.15521 -s 2 -d 3 -p cbr -e 210 -c 0 -i 12 -a 0 -x {0.0 5.0 12 ------- null}
- -t 0.15521 -s 2 -d 3 -p cbr -e 210 -c 0 -i 12 -a 0 -x {0.0 5.0 12 ------- null}
h -t 0.15521 -s 2 -d 3 -p cbr -e 210 -c 0 -i 12 -a 0 -x {0.0 5.0 -1 ------- null}
+ -t 0.15625 -s 0 -d 2 -p cbr -e 210 -c 0 -i 15 -a 0 -x {0.0 5.0 15 ------- null}
- -t 0.15625 -s 0 -d 2 -p cbr -e 210 -c 0 -i 15 -a 0 -x {0.0 5.0 15 ------- null}
h -t 0.15625 -s 0 -d 2 -p cbr -e 210 -c 0 -i 15 -a 0 -x {0.0 5.0 -1 ------- null}
r -t 0.15727 -s 3 -d 5 -p cbr -e 210 -c 0 -i 9 -a 0 -x {0.0 5.0 9 ------- null}
r -t 0.15831 -s 2 -d 3 -p cbr -e 210 -c 0 -i 12 -a 0 -x {0.0 5.0 12 ------- null}
+ -t 0.15831 -s 3 -d 5 -p cbr -e 210 -c 0 -i 12 -a 0 -x {0.0 5.0 12 ------- null}
- -t 0.15831 -s 3 -d 5 -p cbr -e 210 -c 0 -i 12 -a 0 -x {0.0 5.0 12 ------- null}
h -t 0.15831 -s 3 -d 5 -p cbr -e 210 -c 0 -i 12 -a 0 -x {0.0 5.0 -1 ------- null}
r -t 0.15896 -s 0 -d 2 -p cbr -e 210 -c 0 -i 13 -a 0 -x {0.0 5.0 13 ------- null}
+ -t 0.15896 -s 2 -d 3 -p cbr -e 210 -c 0 -i 13 -a 0 -x {0.0 5.0 13 ------- null}
- -t 0.15896 -s 2 -d 3 -p cbr -e 210 -c 0 -i 13 -a 0 -x {0.0 5.0 13 ------- null}
h -t 0.15896 -s 2 -d 3 -p cbr -e 210 -c 0 -i 13 -a 0 -x {0.0 5.0 -1 ------- null}
+ -t 0.16 -s 0 -d 2 -p cbr -e 210 -c 0 -i 16 -a 0 -x {0.0 5.0 16 ------- null}
- -t 0.16 -s 0 -d 2 -p cbr -e 210 -c 0 -i 16 -a 0 -x {0.0 5.0 16 ------- null}
h -t 0.16 -s 0 -d 2 -p cbr -e 210 -c 0 -i 16 -a 0 -x {0.0 5.0 -1 ------- null}
r -t 0.16102 -s 3 -d 5 -p cbr -e 210 -c 0 -i 10 -a 0 -x {0.0 5.0 10 ------- null}
r -t 0.16206 -s 2 -d 3 -p cbr -e 210 -c 0 -i 13 -a 0 -x {0.0 5.0 13 ------- null}
+ -t 0.16206 -s 3 -d 5 -p cbr -e 210 -c 0 -i 13 -a 0 -x {0.0 5.0 13 ------- null}
- -t 0.16206 -s 3 -d 5 -p cbr -e 210 -c 0 -i 13 -a 0 -x {0.0 5.0 13 ------- null}
h -t 0.16206 -s 3 -d 5 -p cbr -e 210 -c 0 -i 13 -a 0 -x {0.0 5.0 -1 ------- null}
r -t 0.16271 -s 0 -d 2 -p cbr -e 210 -c 0 -i 14 -a 0 -x {0.0 5.0 14 ------- null}
+ -t 0.16271 -s 2 -d 3 -p cbr -e 210 -c 0 -i 14 -a 0 -x {0.0 5.0 14 ------- null}
- -t 0.16271 -s 2 -d 3 -p cbr -e 210 -c 0 -i 14 -a 0 -x {0.0 5.0 14 ------- null}
h -t 0.16271 -s 2 -d 3 -p cbr -e 210 -c 0 -i 14 -a 0 -x {0.0 5.0 -1 ------- null}
+ -t 0.16375 -s 0 -d 2 -p cbr -e 210 -c 0 -i 17 -a 0 -x {0.0 5.0 17 ------- null}
- -t 0.16375 -s 0 -d 2 -p cbr -e 210 -c 0 -i 17 -a 0 -x {0.0 5.0 17 ------- null}
h -t 0.16375 -s 0 -d 2 -p cbr -e 210 -c 0 -i 17 -a 0 -x {0.0 5.0 -1 ------- null}
r -t 0.16477 -s 3 -d 5 -p cbr -e 210 -c 0 -i 11 -a 0 -x {0.0 5.0 11 ------- null}
r -t 0.16581 -s 2 -d 3 -p cbr -e 210 -c 0 -i 14 -a 0 -x {0.0 5.0 14 ------- null}
+ -t 0.16581 -s 3 -d 5 -p cbr -e 210 -c 0 -i 14 -a 0 -x {0.0 5.0 14 ------- null}
- -t 0.16581 -s 3 -d 5 -p cbr -e 210 -c 0 -i 14 -a 0 -x {0.0 5.0 14 ------- null}
h -t 0.16581 -s 3 -d 5 -p cbr -e 210 -c 0 -i 14 -a 0 -x {0.0 5.0 -1 ------- null}
r -t 0.16646 -s 0 -d 2 -p cbr -e 210 -c 0 -i 15 -a 0 -x {0.0 5.0 15 ------- null}
+ -t 0.16646 -s 2 -d 3 -p cbr -e 210 -c 0 -i 15 -a 0 -x {0.0 5.0 15 ------- null}
- -t 0.16646 -s 2 -d 3 -p cbr -e 210 -c 0 -i 15 -a 0 -x {0.0 5.0 15 ------- null}
h -t 0.16646 -s 2 -d 3 -p cbr -e 210 -c 0 -i 15 -a 0 -x {0.0 5.0 -1 ------- null}
+ -t 0.1675 -s 0 -d 2 -p cbr -e 210 -c 0 -i 18 -a 0 -x {0.0 5.0 18 ------- null}
- -t 0.1675 -s 0 -d 2 -p cbr -e 210 -c 0 -i 18 -a 0 -x {0.0 5.0 18 ------- null}
h -t 0.1675 -s 0 -d 2 -p cbr -e 210 -c 0 -i 18 -a 0 -x {0.0 5.0 -1 ------- null}
r -t 0.16852 -s 3 -d 5 -p cbr -e 210 -c 0 -i 12 -a 0 -x {0.0 5.0 12 ------- null}
r -t 0.16956 -s 2 -d 3 -p cbr -e 210 -c 0 -i 15 -a 0 -x {0.0 5.0 15 ------- null}
+ -t 0.16956 -s 3 -d 5 -p cbr -e 210 -c 0 -i 15 -a 0 -x {0.0 5.0 15 ------- null}
- -t 0.16956 -s 3 -d 5 -p cbr -e 210 -c 0 -i 15 -a 0 -x {0.0 5.0 15 ------- null}
h -t 0.16956 -s 3 -d 5 -p cbr -e 210 -c 0 -i 15 -a 0 -x {0.0 5.0 -1 ------- null}
r -t 0.17021 -s 0 -d 2 -p cbr -e 210 -c 0 -i 16 -a 0 -x {0.0 5.0 16 ------- null}
+ -t 0.17021 -s 2 -d 3 -p cbr -e 210 -c 0 -i 16 -a 0 -x {0.0 5.0 16 ------- null}
- -t 0.17021 -s 2 -d 3 -p cbr -e 210 -c 0 -i 16 -a 0 -x {0.0 5.0 16 ------- null}
h -t 0.17021 -s 2 -d 3 -p cbr -e 210 -c 0 -i 16 -a 0 -x {0.0 5.0 -1 ------- null}
+ -t 0.17125 -s 0 -d 2 -p cbr -e 210 -c 0 -i 19 -a 0 -x {0.0 5.0 19 ------- null}
- -t 0.17125 -s 0 -d 2 -p cbr -e 210 -c 0 -i 19 -a 0 -x {0.0 5.0 19 ------- null}
h -t 0.17125 -s 0 -d 2 -p cbr -e 210 -c 0 -i 19 -a 0 -x {0.0 5.0 -1 ------- null}
r -t 0.17227 -s 3 -d 5 -p cbr -e 210 -c 0 -i 13 -a 0 -x {0.0 5.0 13 ------- null}
r -t 0.17331 -s 2 -d 3 -p cbr -e 210 -c 0 -i 16 -a 0 -x {0.0 5.0 16 ------- null}
+ -t 0.17331 -s 3 -d 5 -p cbr -e 210 -c 0 -i 16 -a 0 -x {0.0 5.0 16 ------- null}
- -t 0.17331 -s 3 -d 5 -p cbr -e 210 -c 0 -i 16 -a 0 -x {0.0 5.0 16 ------- null}
h -t 0.17331 -s 3 -d 5 -p cbr -e 210 -c 0 -i 16 -a 0 -x {0.0 5.0 -1 ------- null}
r -t 0.17396 -s 0 -d 2 -p cbr -e 210 -c 0 -i 17 -a 0 -x {0.0 5.0 17 ------- null}
+ -t 0.17396 -s 2 -d 3 -p cbr -e 210 -c 0 -i 17 -a 0 -x {0.0 5.0 17 ------- null}
- -t 0.17396 -s 2 -d 3 -p cbr -e 210 -c 0 -i 17 -a 0 -x {0.0 5.0 17 ------- null}
h -t 0.17396 -s 2 -d 3 -p cbr -e 210 -c 0 -i 17 -a 0 -x {0.0 5.0 -1 ------- null}
+ -t 0.175 -s 0 -d 2 -p cbr -e 210 -c 0 -i 20 -a 0 -x {0.0 5.0 20 ------- null}
- -t 0.175 -s 0 -d 2 -p cbr -e 210 -c 0 -i 20 -a 0 -x {0.0 5.0 20 ------- null}
h -t 0.175 -s 0 -d 2 -p cbr -e 210 -c 0 -i 20 -a 0 -x {0.0 5.0 -1 ------- null}
r -t 0.17602 -s 3 -d 5 -p cbr -e 210 -c 0 -i 14 -a 0 -x {0.0 5.0 14 ------- null}
r -t 0.17706 -s 2 -d 3 -p cbr -e 210 -c 0 -i 17 -a 0 -x {0.0 5.0 17 ------- null}
+ -t 0.17706 -s 3 -d 5 -p cbr -e 210 -c 0 -i 17 -a 0 -x {0.0 5.0 17 ------- null}
- -t 0.17706 -s 3 -d 5 -p cbr -e 210 -c 0 -i 17 -a 0 -x {0.0 5.0 17 ------- null}
h -t 0.17706 -s 3 -d 5 -p cbr -e 210 -c 0 -i 17 -a 0 -x {0.0 5.0 -1 ------- null}
r -t 0.17771 -s 0 -d 2 -p cbr -e 210 -c 0 -i 18 -a 0 -x {0.0 5.0 18 ------- null}
+ -t 0.17771 -s 2 -d 3 -p cbr -e 210 -c 0 -i 18 -a 0 -x {0.0 5.0 18 ------- null}
- -t 0.17771 -s 2 -d 3 -p cbr -e 210 -c 0 -i 18 -a 0 -x {0.0 5.0 18 ------- null}
h -t 0.17771 -s 2 -d 3 -p cbr -e 210 -c 0 -i 18 -a 0 -x {0.0 5.0 -1 ------- null}
+ -t 0.17875 -s 0 -d 2 -p cbr -e 210 -c 0 -i 21 -a 0 -x {0.0 5.0 21 ------- null}
- -t 0.17875 -s 0 -d 2 -p cbr -e 210 -c 0 -i 21 -a 0 -x {0.0 5.0 21 ------- null}
h -t 0.17875 -s 0 -d 2 -p cbr -e 210 -c 0 -i 21 -a 0 -x {0.0 5.0 -1 ------- null}
r -t 0.17977 -s 3 -d 5 -p cbr -e 210 -c 0 -i 15 -a 0 -x {0.0 5.0 15 ------- null}
r -t 0.18081 -s 2 -d 3 -p cbr -e 210 -c 0 -i 18 -a 0 -x {0.0 5.0 18 ------- null}
+ -t 0.18081 -s 3 -d 5 -p cbr -e 210 -c 0 -i 18 -a 0 -x {0.0 5.0 18 ------- null}
- -t 0.18081 -s 3 -d 5 -p cbr -e 210 -c 0 -i 18 -a 0 -x {0.0 5.0 18 ------- null}
h -t 0.18081 -s 3 -d 5 -p cbr -e 210 -c 0 -i 18 -a 0 -x {0.0 5.0 -1 ------- null}
r -t 0.18146 -s 0 -d 2 -p cbr -e 210 -c 0 -i 19 -a 0 -x {0.0 5.0 19 ------- null}
+ -t 0.18146 -s 2 -d 3 -p cbr -e 210 -c 0 -i 19 -a 0 -x {0.0 5.0 19 ------- null}
- -t 0.18146 -s 2 -d 3 -p cbr -e 210 -c 0 -i 19 -a 0 -x {0.0 5.0 19 ------- null}
h -t 0.18146 -s 2 -d 3 -p cbr -e 210 -c 0 -i 19 -a 0 -x {0.0 5.0 -1 ------- null}
+ -t 0.1825 -s 0 -d 2 -p cbr -e 210 -c 0 -i 22 -a 0 -x {0.0 5.0 22 ------- null}
- -t 0.1825 -s 0 -d 2 -p cbr -e 210 -c 0 -i 22 -a 0 -x {0.0 5.0 22 ------- null}
h -t 0.1825 -s 0 -d 2 -p cbr -e 210 -c 0 -i 22 -a 0 -x {0.0 5.0 -1 ------- null}
r -t 0.18352 -s 3 -d 5 -p cbr -e 210 -c 0 -i 16 -a 0 -x {0.0 5.0 16 ------- null}
r -t 0.18456 -s 2 -d 3 -p cbr -e 210 -c 0 -i 19 -a 0 -x {0.0 5.0 19 ------- null}
+ -t 0.18456 -s 3 -d 5 -p cbr -e 210 -c 0 -i 19 -a 0 -x {0.0 5.0 19 ------- null}
- -t 0.18456 -s 3 -d 5 -p cbr -e 210 -c 0 -i 19 -a 0 -x {0.0 5.0 19 ------- null}
h -t 0.18456 -s 3 -d 5 -p cbr -e 210 -c 0 -i 19 -a 0 -x {0.0 5.0 -1 ------- null}
r -t 0.18521 -s 0 -d 2 -p cbr -e 210 -c 0 -i 20 -a 0 -x {0.0 5.0 20 ------- null}
+ -t 0.18521 -s 2 -d 3 -p cbr -e 210 -c 0 -i 20 -a 0 -x {0.0 5.0 20 ------- null}
- -t 0.18521 -s 2 -d 3 -p cbr -e 210 -c 0 -i 20 -a 0 -x {0.0 5.0 20 ------- null}
h -t 0.18521 -s 2 -d 3 -p cbr -e 210 -c 0 -i 20 -a 0 -x {0.0 5.0 -1 ------- null}
+ -t 0.18625 -s 0 -d 2 -p cbr -e 210 -c 0 -i 23 -a 0 -x {0.0 5.0 23 ------- null}
- -t 0.18625 -s 0 -d 2 -p cbr -e 210 -c 0 -i 23 -a 0 -x {0.0 5.0 23 ------- null}
h -t 0.18625 -s 0 -d 2 -p cbr -e 210 -c 0 -i 23 -a 0 -x {0.0 5.0 -1 ------- null}
r -t 0.18727 -s 3 -d 5 -p cbr -e 210 -c 0 -i 17 -a 0 -x {0.0 5.0 17 ------- null}
r -t 0.18831 -s 2 -d 3 -p cbr -e 210 -c 0 -i 20 -a 0 -x {0.0 5.0 20 ------- null}
+ -t 0.18831 -s 3 -d 5 -p cbr -e 210 -c 0 -i 20 -a 0 -x {0.0 5.0 20 ------- null}
- -t 0.18831 -s 3 -d 5 -p cbr -e 210 -c 0 -i 20 -a 0 -x {0.0 5.0 20 ------- null}
h -t 0.18831 -s 3 -d 5 -p cbr -e 210 -c 0 -i 20 -a 0 -x {0.0 5.0 -1 ------- null}
r -t 0.18896 -s 0 -d 2 -p cbr -e 210 -c 0 -i 21 -a 0 -x {0.0 5.0 21 ------- null}
+ -t 0.18896 -s 2 -d 3 -p cbr -e 210 -c 0 -i 21 -a 0 -x {0.0 5.0 21 ------- null}
- -t 0.18896 -s 2 -d 3 -p cbr -e 210 -c 0 -i 21 -a 0 -x {0.0 5.0 21 ------- null}
h -t 0.18896 -s 2 -d 3 -p cbr -e 210 -c 0 -i 21 -a 0 -x {0.0 5.0 -1 ------- null}
+ -t 0.19 -s 0 -d 2 -p cbr -e 210 -c 0 -i 24 -a 0 -x {0.0 5.0 24 ------- null}
- -t 0.19 -s 0 -d 2 -p cbr -e 210 -c 0 -i 24 -a 0 -x {0.0 5.0 24 ------- null}
h -t 0.19 -s 0 -d 2 -p cbr -e 210 -c 0 -i 24 -a 0 -x {0.0 5.0 -1 ------- null}
r -t 0.19102 -s 3 -d 5 -p cbr -e 210 -c 0 -i 18 -a 0 -x {0.0 5.0 18 ------- null}
r -t 0.19206 -s 2 -d 3 -p cbr -e 210 -c 0 -i 21 -a 0 -x {0.0 5.0 21 ------- null}
+ -t 0.19206 -s 3 -d 5 -p cbr -e 210 -c 0 -i 21 -a 0 -x {0.0 5.0 21 ------- null}
- -t 0.19206 -s 3 -d 5 -p cbr -e 210 -c 0 -i 21 -a 0 -x {0.0 5.0 21 ------- null}
h -t 0.19206 -s 3 -d 5 -p cbr -e 210 -c 0 -i 21 -a 0 -x {0.0 5.0 -1 ------- null}
r -t 0.19271 -s 0 -d 2 -p cbr -e 210 -c 0 -i 22 -a 0 -x {0.0 5.0 22 ------- null}
+ -t 0.19271 -s 2 -d 3 -p cbr -e 210 -c 0 -i 22 -a 0 -x {0.0 5.0 22 ------- null}
- -t 0.19271 -s 2 -d 3 -p cbr -e 210 -c 0 -i 22 -a 0 -x {0.0 5.0 22 ------- null}
h -t 0.19271 -s 2 -d 3 -p cbr -e 210 -c 0 -i 22 -a 0 -x {0.0 5.0 -1 ------- null}
+ -t 0.19375 -s 0 -d 2 -p cbr -e 210 -c 0 -i 25 -a 0 -x {0.0 5.0 25 ------- null}
- -t 0.19375 -s 0 -d 2 -p cbr -e 210 -c 0 -i 25 -a 0 -x {0.0 5.0 25 ------- null}
h -t 0.19375 -s 0 -d 2 -p cbr -e 210 -c 0 -i 25 -a 0 -x {0.0 5.0 -1 ------- null}
r -t 0.19477 -s 3 -d 5 -p cbr -e 210 -c 0 -i 19 -a 0 -x {0.0 5.0 19 ------- null}
r -t 0.19581 -s 2 -d 3 -p cbr -e 210 -c 0 -i 22 -a 0 -x {0.0 5.0 22 ------- null}
+ -t 0.19581 -s 3 -d 5 -p cbr -e 210 -c 0 -i 22 -a 0 -x {0.0 5.0 22 ------- null}
- -t 0.19581 -s 3 -d 5 -p cbr -e 210 -c 0 -i 22 -a 0 -x {0.0 5.0 22 ------- null}
h -t 0.19581 -s 3 -d 5 -p cbr -e 210 -c 0 -i 22 -a 0 -x {0.0 5.0 -1 ------- null}
r -t 0.19646 -s 0 -d 2 -p cbr -e 210 -c 0 -i 23 -a 0 -x {0.0 5.0 23 ------- null}
+ -t 0.19646 -s 2 -d 3 -p cbr -e 210 -c 0 -i 23 -a 0 -x {0.0 5.0 23 ------- null}
- -t 0.19646 -s 2 -d 3 -p cbr -e 210 -c 0 -i 23 -a 0 -x {0.0 5.0 23 ------- null}
h -t 0.19646 -s 2 -d 3 -p cbr -e 210 -c 0 -i 23 -a 0 -x {0.0 5.0 -1 ------- null}
+ -t 0.1975 -s 0 -d 2 -p cbr -e 210 -c 0 -i 26 -a 0 -x {0.0 5.0 26 ------- null}
- -t 0.1975 -s 0 -d 2 -p cbr -e 210 -c 0 -i 26 -a 0 -x {0.0 5.0 26 ------- null}
h -t 0.1975 -s 0 -d 2 -p cbr -e 210 -c 0 -i 26 -a 0 -x {0.0 5.0 -1 ------- null}
r -t 0.19852 -s 3 -d 5 -p cbr -e 210 -c 0 -i 20 -a 0 -x {0.0 5.0 20 ------- null}
r -t 0.19956 -s 2 -d 3 -p cbr -e 210 -c 0 -i 23 -a 0 -x {0.0 5.0 23 ------- null}
+ -t 0.19956 -s 3 -d 5 -p cbr -e 210 -c 0 -i 23 -a 0 -x {0.0 5.0 23 ------- null}
- -t 0.19956 -s 3 -d 5 -p cbr -e 210 -c 0 -i 23 -a 0 -x {0.0 5.0 23 ------- null}
h -t 0.19956 -s 3 -d 5 -p cbr -e 210 -c 0 -i 23 -a 0 -x {0.0 5.0 -1 ------- null}
r -t 0.20021 -s 0 -d 2 -p cbr -e 210 -c 0 -i 24 -a 0 -x {0.0 5.0 24 ------- null}
+ -t 0.20021 -s 2 -d 3 -p cbr -e 210 -c 0 -i 24 -a 0 -x {0.0 5.0 24 ------- null}
- -t 0.20021 -s 2 -d 3 -p cbr -e 210 -c 0 -i 24 -a 0 -x {0.0 5.0 24 ------- null}
h -t 0.20021 -s 2 -d 3 -p cbr -e 210 -c 0 -i 24 -a 0 -x {0.0 5.0 -1 ------- null}
+ -t 0.20125 -s 0 -d 2 -p cbr -e 210 -c 0 -i 27 -a 0 -x {0.0 5.0 27 ------- null}
- -t 0.20125 -s 0 -d 2 -p cbr -e 210 -c 0 -i 27 -a 0 -x {0.0 5.0 27 ------- null}
h -t 0.20125 -s 0 -d 2 -p cbr -e 210 -c 0 -i 27 -a 0 -x {0.0 5.0 -1 ------- null}
r -t 0.20227 -s 3 -d 5 -p cbr -e 210 -c 0 -i 21 -a 0 -x {0.0 5.0 21 ------- null}
r -t 0.20331 -s 2 -d 3 -p cbr -e 210 -c 0 -i 24 -a 0 -x {0.0 5.0 24 ------- null}
+ -t 0.20331 -s 3 -d 5 -p cbr -e 210 -c 0 -i 24 -a 0 -x {0.0 5.0 24 ------- null}
- -t 0.20331 -s 3 -d 5 -p cbr -e 210 -c 0 -i 24 -a 0 -x {0.0 5.0 24 ------- null}
h -t 0.20331 -s 3 -d 5 -p cbr -e 210 -c 0 -i 24 -a 0 -x {0.0 5.0 -1 ------- null}
r -t 0.20396 -s 0 -d 2 -p cbr -e 210 -c 0 -i 25 -a 0 -x {0.0 5.0 25 ------- null}
+ -t 0.20396 -s 2 -d 3 -p cbr -e 210 -c 0 -i 25 -a 0 -x {0.0 5.0 25 ------- null}
- -t 0.20396 -s 2 -d 3 -p cbr -e 210 -c 0 -i 25 -a 0 -x {0.0 5.0 25 ------- null}
h -t 0.20396 -s 2 -d 3 -p cbr -e 210 -c 0 -i 25 -a 0 -x {0.0 5.0 -1 ------- null}
+ -t 0.205 -s 0 -d 2 -p cbr -e 210 -c 0 -i 28 -a 0 -x {0.0 5.0 28 ------- null}
- -t 0.205 -s 0 -d 2 -p cbr -e 210 -c 0 -i 28 -a 0 -x {0.0 5.0 28 ------- null}
h -t 0.205 -s 0 -d 2 -p cbr -e 210 -c 0 -i 28 -a 0 -x {0.0 5.0 -1 ------- null}
r -t 0.20602 -s 3 -d 5 -p cbr -e 210 -c 0 -i 22 -a 0 -x {0.0 5.0 22 ------- null}
r -t 0.20706 -s 2 -d 3 -p cbr -e 210 -c 0 -i 25 -a 0 -x {0.0 5.0 25 ------- null}
+ -t 0.20706 -s 3 -d 5 -p cbr -e 210 -c 0 -i 25 -a 0 -x {0.0 5.0 25 ------- null}
- -t 0.20706 -s 3 -d 5 -p cbr -e 210 -c 0 -i 25 -a 0 -x {0.0 5.0 25 ------- null}
h -t 0.20706 -s 3 -d 5 -p cbr -e 210 -c 0 -i 25 -a 0 -x {0.0 5.0 -1 ------- null}
r -t 0.20771 -s 0 -d 2 -p cbr -e 210 -c 0 -i 26 -a 0 -x {0.0 5.0 26 ------- null}
+ -t 0.20771 -s 2 -d 3 -p cbr -e 210 -c 0 -i 26 -a 0 -x {0.0 5.0 26 ------- null}
- -t 0.20771 -s 2 -d 3 -p cbr -e 210 -c 0 -i 26 -a 0 -x {0.0 5.0 26 ------- null}
h -t 0.20771 -s 2 -d 3 -p cbr -e 210 -c 0 -i 26 -a 0 -x {0.0 5.0 -1 ------- null}
+ -t 0.20875 -s 0 -d 2 -p cbr -e 210 -c 0 -i 29 -a 0 -x {0.0 5.0 29 ------- null}
- -t 0.20875 -s 0 -d 2 -p cbr -e 210 -c 0 -i 29 -a 0 -x {0.0 5.0 29 ------- null}
h -t 0.20875 -s 0 -d 2 -p cbr -e 210 -c 0 -i 29 -a 0 -x {0.0 5.0 -1 ------- null}
r -t 0.20977 -s 3 -d 5 -p cbr -e 210 -c 0 -i 23 -a 0 -x {0.0 5.0 23 ------- null}
r -t 0.21081 -s 2 -d 3 -p cbr -e 210 -c 0 -i 26 -a 0 -x {0.0 5.0 26 ------- null}
+ -t 0.21081 -s 3 -d 5 -p cbr -e 210 -c 0 -i 26 -a 0 -x {0.0 5.0 26 ------- null}
- -t 0.21081 -s 3 -d 5 -p cbr -e 210 -c 0 -i 26 -a 0 -x {0.0 5.0 26 ------- null}
h -t 0.21081 -s 3 -d 5 -p cbr -e 210 -c 0 -i 26 -a 0 -x {0.0 5.0 -1 ------- null}
r -t 0.21146 -s 0 -d 2 -p cbr -e 210 -c 0 -i 27 -a 0 -x {0.0 5.0 27 ------- null}
+ -t 0.21146 -s 2 -d 3 -p cbr -e 210 -c 0 -i 27 -a 0 -x {0.0 5.0 27 ------- null}
- -t 0.21146 -s 2 -d 3 -p cbr -e 210 -c 0 -i 27 -a 0 -x {0.0 5.0 27 ------- null}
h -t 0.21146 -s 2 -d 3 -p cbr -e 210 -c 0 -i 27 -a 0 -x {0.0 5.0 -1 ------- null}
+ -t 0.2125 -s 0 -d 2 -p cbr -e 210 -c 0 -i 30 -a 0 -x {0.0 5.0 30 ------- null}
- -t 0.2125 -s 0 -d 2 -p cbr -e 210 -c 0 -i 30 -a 0 -x {0.0 5.0 30 ------- null}
h -t 0.2125 -s 0 -d 2 -p cbr -e 210 -c 0 -i 30 -a 0 -x {0.0 5.0 -1 ------- null}
r -t 0.21352 -s 3 -d 5 -p cbr -e 210 -c 0 -i 24 -a 0 -x {0.0 5.0 24 ------- null}
r -t 0.21456 -s 2 -d 3 -p cbr -e 210 -c 0 -i 27 -a 0 -x {0.0 5.0 27 ------- null}
+ -t 0.21456 -s 3 -d 5 -p cbr -e 210 -c 0 -i 27 -a 0 -x {0.0 5.0 27 ------- null}
- -t 0.21456 -s 3 -d 5 -p cbr -e 210 -c 0 -i 27 -a 0 -x {0.0 5.0 27 ------- null}
h -t 0.21456 -s 3 -d 5 -p cbr -e 210 -c 0 -i 27 -a 0 -x {0.0 5.0 -1 ------- null}
r -t 0.21521 -s 0 -d 2 -p cbr -e 210 -c 0 -i 28 -a 0 -x {0.0 5.0 28 ------- null}
+ -t 0.21521 -s 2 -d 3 -p cbr -e 210 -c 0 -i 28 -a 0 -x {0.0 5.0 28 ------- null}
- -t 0.21521 -s 2 -d 3 -p cbr -e 210 -c 0 -i 28 -a 0 -x {0.0 5.0 28 ------- null}
h -t 0.21521 -s 2 -d 3 -p cbr -e 210 -c 0 -i 28 -a 0 -x {0.0 5.0 -1 ------- null}
+ -t 0.21625 -s 0 -d 2 -p cbr -e 210 -c 0 -i 31 -a 0 -x {0.0 5.0 31 ------- null}
- -t 0.21625 -s 0 -d 2 -p cbr -e 210 -c 0 -i 31 -a 0 -x {0.0 5.0 31 ------- null}
h -t 0.21625 -s 0 -d 2 -p cbr -e 210 -c 0 -i 31 -a 0 -x {0.0 5.0 -1 ------- null}
r -t 0.21727 -s 3 -d 5 -p cbr -e 210 -c 0 -i 25 -a 0 -x {0.0 5.0 25 ------- null}
r -t 0.21831 -s 2 -d 3 -p cbr -e 210 -c 0 -i 28 -a 0 -x {0.0 5.0 28 ------- null}
+ -t 0.21831 -s 3 -d 5 -p cbr -e 210 -c 0 -i 28 -a 0 -x {0.0 5.0 28 ------- null}
- -t 0.21831 -s 3 -d 5 -p cbr -e 210 -c 0 -i 28 -a 0 -x {0.0 5.0 28 ------- null}
h -t 0.21831 -s 3 -d 5 -p cbr -e 210 -c 0 -i 28 -a 0 -x {0.0 5.0 -1 ------- null}
r -t 0.21896 -s 0 -d 2 -p cbr -e 210 -c 0 -i 29 -a 0 -x {0.0 5.0 29 ------- null}
+ -t 0.21896 -s 2 -d 3 -p cbr -e 210 -c 0 -i 29 -a 0 -x {0.0 5.0 29 ------- null}
- -t 0.21896 -s 2 -d 3 -p cbr -e 210 -c 0 -i 29 -a 0 -x {0.0 5.0 29 ------- null}
h -t 0.21896 -s 2 -d 3 -p cbr -e 210 -c 0 -i 29 -a 0 -x {0.0 5.0 -1 ------- null}
+ -t 0.22 -s 0 -d 2 -p cbr -e 210 -c 0 -i 32 -a 0 -x {0.0 5.0 32 ------- null}
- -t 0.22 -s 0 -d 2 -p cbr -e 210 -c 0 -i 32 -a 0 -x {0.0 5.0 32 ------- null}
h -t 0.22 -s 0 -d 2 -p cbr -e 210 -c 0 -i 32 -a 0 -x {0.0 5.0 -1 ------- null}