+ 0.1 0 2 cbr 210 ------- 0 0.0 5.0 0 0
- 0.1 0 2 cbr 210 ------- 0 0.0 5.0 0 0
+ 0.10375 0 2 cbr 210 ------- 0 0.0 5.0 1 1
- 0.10375 0 2 cbr 210 ------- 0 0.0 5.0 1 1
+ 0.1075 0 2 cbr 210 ------- 0 0.0 5.0 2 2
- 0.1075 0 2 cbr 210 ------- 0 0.0 5.0 2 2
r 0.11021 0 2 cbr 210 ------- 0 0.0 5.0 0 0
+ 0.11021 2 3 cbr 210 ------- 0 0.0 5.0 0 0
- 0.11021 2 3 cbr 210 ------- 0 0.0 5.0 0 0
+ 0.11125 0 2 cbr 210 ------- 0 0.0 5.0 3 3
- 0.11125 0 2 cbr 210 ------- 0 0.0 5.0 3 3
r 0.11331 2 3 cbr 210 ------- 0 0.0 5.0 0 0
+ 0.11331 3 5 cbr 210 ------- 0 0.0 5.0 0 0
- 0.11331 3 5 cbr 210 ------- 0 0.0 5.0 0 0
r 0.11396 0 2 cbr 210 ------- 0 0.0 5.0 1 1
+ 0.11396 2 3 cbr 210 ------- 0 0.0 5.0 1 1
- 0.11396 2 3 cbr 210 ------- 0 0.0 5.0 1 1
+ 0.115 0 2 cbr 210 ------- 0 0.0 5.0 4 4
- 0.115 0 2 cbr 210 ------- 0 0.0 5.0 4 4
r 0.11706 2 3 cbr 210 ------- 0 0.0 5.0 1 1
+ 0.11706 3 5 cbr 210 ------- 0 0.0 5.0 1 1
- 0.11706 3 5 cbr 210 ------- 0 0.0 5.0 1 1
r 0.11771 0 2 cbr 210 ------- 0 0.0 5.0 2 2
+ 0.11771 2 3 cbr 210 ------- 0 0.0 5.0 2 2
- 0.11771 2 3 cbr 210 ------- 0 0.0 5.0 2 2
+ 0.11875 0 2 cbr 210 ------- 0 0.0 5.0 5 5
- 0.11875 0 2 cbr 210 ------- 0 0.0 5.0 5 5
r 0.12081 2 3 cbr 210 ------- 0 0.0 5.0 2 2
+ 0.12081 3 5 cbr 210 ------- 0 0.0 5.0 2 2
- 0.12081 3 5 cbr 210 ------- 0 0.0 5.0 2 2
r 0.12146 0 2 cbr 210 ------- 0 0.0 5.0 3 3
+ 0.12146 2 3 cbr 210 ------- 0 0.0 5.0 3 3
- 0.12146 2 3 cbr 210 ------- 0 0.0 5.0 3 3
+ 0.1225 0 2 cbr 210 ------- 0 0.0 5.0 6 6
- 0.1225 0 2 cbr 210 ------- 0 0.0 5.0 6 6
r 0.12352 3 5 cbr 210 ------- 0 0.0 5.0 0 0
r 0.12456 2 3 cbr 210 ------- 0 0.0 5.0 3 3
+ 0.12456 3 5 cbr 210 ------- 0 0.0 5.0 3 3
- 0.12456 3 5 cbr 210 ------- 0 0.0 5.0 3 3
r 0.12521 0 2 cbr 210 ------- 0 0.0 5.0 4 4
+ 0.12521 2 3 cbr 210 ------- 0 0.0 5.0 4 4
- 0.12521 2 3 cbr 210 ------- 0 0.0 5.0 4 4
+ 0.12625 0 2 cbr 210 ------- 0 0.0 5.0 7 7
- 0.12625 0 2 cbr 210 ------- 0 0.0 5.0 7 7
r 0.12727 3 5 cbr 210 ------- 0 0.0 5.0 1 1
r 0.12831 2 3 cbr 210 ------- 0 0.0 5.0 4 4
+ 0.12831 3 5 cbr 210 ------- 0 0.0 5.0 4 4
- 0.12831 3 5 cbr 210 ------- 0 0.0 5.0 4 4
r 0.12896 0 2 cbr 210 ------- 0 0.0 5.0 5 5
+ 0.12896 2 3 cbr 210 ------- 0 0.0 5.0 5 5
- 0.12896 2 3 cbr 210 ------- 0 0.0 5.0 5 5
+ 0.13 0 2 cbr 210 ------- 0 0.0 5.0 8 8
- 0.13 0 2 cbr 210 ------- 0 0.0 5.0 8 8
r 0.13102 3 5 cbr 210 ------- 0 0.0 5.0 2 2
r 0.13206 2 3 cbr 210 ------- 0 0.0 5.0 5 5
+ 0.13206 3 5 cbr 210 ------- 0 0.0 5.0 5 5
- 0.13206 3 5 cbr 210 ------- 0 0.0 5.0 5 5
r 0.13271 0 2 cbr 210 ------- 0 0.0 5.0 6 6
+ 0.13271 2 3 cbr 210 ------- 0 0.0 5.0 6 6
- 0.13271 2 3 cbr 210 ------- 0 0.0 5.0 6 6
+ 0.13375 0 2 cbr 210 ------- 0 0.0 5.0 9 9
- 0.13375 0 2 cbr 210 ------- 0 0.0 5.0 9 9
r 0.13477 3 5 cbr 210 ------- 0 0.0 5.0 3 3
r 0.13581 2 3 cbr 210 ------- 0 0.0 5.0 6 6
+ 0.13581 3 5 cbr 210 ------- 0 0.0 5.0 6 6
- 0.13581 3 5 cbr 210 ------- 0 0.0 5.0 6 6
r 0.13646 0 2 cbr 210 ------- 0 0.0 5.0 7 7
+ 0.13646 2 3 cbr 210 ------- 0 0.0 5.0 7 7
- 0.13646 2 3 cbr 210 ------- 0 0.0 5.0 7 7
+ 0.1375 0 2 cbr 210 ------- 0 0.0 5.0 10 10
- 0.1375 0 2 cbr 210 ------- 0 0.0 5.0 10 10
r 0.13852 3 5 cbr 210 ------- 0 0.0 5.0 4 4
r 0.13956 2 3 cbr 210 ------- 0 0.0 5.0 7 7
+ 0.13956 3 5 cbr 210 ------- 0 0.0 5.0 7 7
- 0.13956 3 5 cbr 210 ------- 0 0.0 5.0 7 7
r 0.14021 0 2 cbr 210 ------- 0 0.0 5.0 8 8
+ 0.14021 2 3 cbr 210 ------- 0 0.0 5.0 8 8
- 0.14021 2 3 cbr 210 ------- 0 0.0 5.0 8 8
+ 0.14125 0 2 cbr 210 ------- 0 0.0 5.0 11 11
- 0.14125 0 2 cbr 210 ------- 0 0.0 5.0 11 11
r 0.14227 3 5 cbr 210 ------- 0 0.0 5.0 5 5
r 0.14331 2 3 cbr 210 ------- 0 0.0 5.0 8 8
+ 0.14331 3 5 cbr 210 ------- 0 0.0 5.0 8 8
- 0.14331 3 5 cbr 210 ------- 0 0.0 5.0 8 8
r 0.14396 0 2 cbr 210 ------- 0 0.0 5.0 9 9
+ 0.14396 2 3 cbr 210 ------- 0 0.0 5.0 9 9
- 0.14396 2 3 cbr 210 ------- 0 0.0 5.0 9 9
+ 0.145 0 2 cbr 210 ------- 0 0.0 5.0 12 12
- 0.145 0 2 cbr 210 ------- 0 0.0 5.0 12 12
r 0.14602 3 5 cbr 210 ------- 0 0.0 5.0 6 6
r 0.14706 2 3 cbr 210 ------- 0 0.0 5.0 9 9
+ 0.14706 3 5 cbr 210 ------- 0 0.0 5.0 9 9
- 0.14706 3 5 cbr 210 ------- 0 0.0 5.0 9 9
r 0.14771 0 2 cbr 210 ------- 0 0.0 5.0 10 10
+ 0.14771 2 3 cbr 210 ------- 0 0.0 5.0 10 10
- 0.14771 2 3 cbr 210 ------- 0 0.0 5.0 10 10
+ 0.14875 0 2 cbr 210 ------- 0 0.0 5.0 13 13
- 0.14875 0 2 cbr 210 ------- 0 0.0 5.0 13 13
r 0.14977 3 5 cbr 210 ------- 0 0.0 5.0 7 7
r 0.15081 2 3 cbr 210 ------- 0 0.0 5.0 10 10
+ 0.15081 3 5 cbr 210 ------- 0 0.0 5.0 10 10
- 0.15081 3 5 cbr 210 ------- 0 0.0 5.0 10 10
r 0.15146 0 2 cbr 210 ------- 0 0.0 5.0 11 11
+ 0.15146 2 3 cbr 210 ------- 0 0.0 5.0 11 11
- 0.15146 2 3 cbr 210 ------- 0 0.0 5.0 11 11
+ 0.1525 0 2 cbr 210 ------- 0 0.0 5.0 14 14
- 0.1525 0 2 cbr 210 ------- 0 0.0 5.0 14 14
r 0.15352 3 5 cbr 210 ------- 0 0.0 5.0 8 8
r 0.15456 2 3 cbr 210 ------- 0 0.0 5.0 11 11
+ 0.15456 3 5 cbr 210 ------- 0 0.0 5.0 11 11
- 0.15456 3 5 cbr 210 ------- 0 0.0 5.0 11 11
r 0.15521 0 2 cbr 210 ------- 0 0.0 5.0 12 12
+ 0.15521 2 3 cbr 210 ------- 0 0.0 5.0 12 12
- 0.15521 2 3 cbr 210 ------- 0 0.0 5.0 12 12
+ 0.15625 0 2 cbr 210 ------- 0 0.0 5.0 15 15
- 0.15625 0 2 cbr 210 ------- 0 0.0 5.0 15 15
r 0.15727 3 5 cbr 210 ------- 0 0.0 5.0 9 9
r 0.15831 2 3 cbr 210 ------- 0 0.0 5.0 12 12
+ 0.15831 3 5 cbr 210 ------- 0 0.0 5.0 12 12
- 0.15831 3 5 cbr 210 ------- 0 0.0 5.0 12 12
r 0.15896 0 2 cbr 210 ------- 0 0.0 5.0 13 13
+ 0.15896 2 3 cbr 210 ------- 0 0.0 5.0 13 13
- 0.15896 2 3 cbr 210 ------- 0 0.0 5.0 13 13
+ 0.16 0 2 cbr 210 ------- 0 0.0 5.0 16 16
- 0.16 0 2 cbr 210 ------- 0 0.0 5.0 16 16
r 0.16102 3 5 cbr 210 ------- 0 0.0 5.0 10 10
r 0.16206 2 3 cbr 210 ------- 0 0.0 5.0 13 13
+ 0.16206 3 5 cbr 210 ------- 0 0.0 5.0 13 13
- 0.16206 3 5 cbr 210 ------- 0 0.0 5.0 13 13
r 0.16271 0 2 cbr 210 ------- 0 0.0 5.0 14 14
+ 0.16271 2 3 cbr 210 ------- 0 0.0 5.0 14 14
- 0.16271 2 3 cbr 210 ------- 0 0.0 5.0 14 14
+ 0.16375 0 2 cbr 210 ------- 0 0.0 5.0 17 17
- 0.16375 0 2 cbr 210 ------- 0 0.0 5.0 17 17
r 0.16477 3 5 cbr 210 ------- 0 0.0 5.0 11 11
r 0.16581 2 3 cbr 210 ------- 0 0.0 5.0 14 14
+ 0.16581 3 5 cbr 210 ------- 0 0.0 5.0 14 14
- 0.16581 3 5 cbr 210 ------- 0 0.0 5.0 14 14
r 0.16646 0 2 cbr 210 ------- 0 0.0 5.0 15 15
+ 0.16646 2 3 cbr 210 ------- 0 0.0 5.0 15 15
- 0.16646 2 3 cbr 210 ------- 0 0.0 5.0 15 15
+ 0.1675 0 2 cbr 210 ------- 0 0.0 5.0 18 18
- 0.1675 0 2 cbr 210 ------- 0 0.0 5.0 18 18
r 0.16852 3 5 cbr 210 ------- 0 0.0 5.0 12 12
r 0.16956 2 3 cbr 210 ------- 0 0.0 5.0 15 15
+ 0.16956 3 5 cbr 210 ------- 0 0.0 5.0 15 15
- 0.16956 3 5 cbr 210 ------- 0 0.0 5.0 15 15
r 0.17021 0 2 cbr 210 ------- 0 0.0 5.0 16 16
+ 0.17021 2 3 cbr 210 ------- 0 0.0 5.0 16 16
- 0.17021 2 3 cbr 210 ------- 0 0.0 5.0 16 16
+ 0.17125 0 2 cbr 210 ------- 0 0.0 5.0 19 19
- 0.17125 0 2 cbr 210 ------- 0 0.0 5.0 19 19
r 0.17227 3 5 cbr 210 ------- 0 0.0 5.0 13 13
r 0.17331 2 3 cbr 210 ------- 0 0.0 5.0 16 16
+ 0.17331 3 5 cbr 210 ------- 0 0.0 5.0 16 16
- 0.17331 3 5 cbr 210 ------- 0 0.0 5.0 16 16
r 0.17396 0 2 cbr 210 ------- 0 0.0 5.0 17 17
+ 0.17396 2 3 cbr 210 ------- 0 0.0 5.0 17 17
- 0.17396 2 3 cbr 210 ------- 0 0.0 5.0 17 17
+ 0.175 0 2 cbr 210 ------- 0 0.0 5.0 20 20
- 0.175 0 2 cbr 210 ------- 0 0.0 5.0 20 20
r 0.17602 3 5 cbr 210 ------- 0 0.0 5.0 14 14
r 0.17706 2 3 cbr 210 ------- 0 0.0 5.0 17 17
+ 0.17706 3 5 cbr 210 ------- 0 0.0 5.0 17 17
- 0.17706 3 5 cbr 210 ------- 0 0.0 5.0 17 17
r 0.17771 0 2 cbr 210 ------- 0 0.0 5.0 18 18
+ 0.17771 2 3 cbr 210 ------- 0 0.0 5.0 18 18
- 0.17771 2 3 cbr 210 ------- 0 0.0 5.0 18 18
+ 0.17875 0 2 cbr 210 ------- 0 0.0 5.0 21 21
- 0.17875 0 2 cbr 210 ------- 0 0.0 5.0 21 21
r 0.17977 3 5 cbr 210 ------- 0 0.0 5.0 15 15
r 0.18081 2 3 cbr 210 ------- 0 0.0 5.0 18 18
+ 0.18081 3 5 cbr 210 ------- 0 0.0 5.0 18 18
- 0.18081 3 5 cbr 210 ------- 0 0.0 5.0 18 18
r 0.18146 0 2 cbr 210 ------- 0 0.0 5.0 19 19
+ 0.18146 2 3 cbr 210 ------- 0 0.0 5.0 19 19
- 0.18146 2 3 cbr 210 ------- 0 0.0 5.0 19 19
+ 0.1825 0 2 cbr 210 ------- 0 0.0 5.0 22 22
- 0.1825 0 2 cbr 210 ------- 0 0.0 5.0 22 22
r 0.18352 3 5 cbr 210 ------- 0 0.0 5.0 16 16
r 0.18456 2 3 cbr 210 ------- 0 0.0 5.0 19 19
+ 0.18456 3 5 cbr 210 ------- 0 0.0 5.0 19 19
- 0.18456 3 5 cbr 210 ------- 0 0.0 5.0 19 19
r 0.18521 0 2 cbr 210 ------- 0 0.0 5.0 20 20
+ 0.18521 2 3 cbr 210 ------- 0 0.0 5.0 20 20
- 0.18521 2 3 cbr 210 ------- 0 0.0 5.0 20 20
+ 0.18625 0 2 cbr 210 ------- 0 0.0 5.0 23 23
- 0.18625 0 2 cbr 210 ------- 0 0.0 5.0 23 23
r 0.18727 3 5 cbr 210 ------- 0 0.0 5.0 17 17
r 0.18831 2 3 cbr 210 ------- 0 0.0 5.0 20 20
+ 0.18831 3 5 cbr 210 ------- 0 0.0 5.0 20 20
- 0.18831 3 5 cbr 210 ------- 0 0.0 5.0 20 20
r 0.18896 0 2 cbr 210 ------- 0 0.0 5.0 21 21
+ 0.18896 2 3 cbr 210 ------- 0 0.0 5.0 21 21
- 0.18896 2 3 cbr 210 ------- 0 0.0 5.0 21 21
+ 0.19 0 2 cbr 210 ------- 0 0.0 5.0 24 24
- 0.19 0 2 cbr 210 ------- 0 0.0 5.0 24 24
r 0.19102 3 5 cbr 210 ------- 0 0.0 5.0 18 18
r 0.19206 2 3 cbr 210 ------- 0 0.0 5.0 21 21
+ 0.19206 3 5 cbr 210 ------- 0 0.0 5.0 21 21
- 0.19206 3 5 cbr 210 ------- 0 0.0 5.0 21 21
r 0.19271 0 2 cbr 210 ------- 0 0.0 5.0 22 22
+ 0.19271 2 3 cbr 210 ------- 0 0.0 5.0 22 22
- 0.19271 2 3 cbr 210 ------- 0 0.0 5.0 22 22
+ 0.19375 0 2 cbr 210 ------- 0 0.0 5.0 25 25
- 0.19375 0 2 cbr 210 ------- 0 0.0 5.0 25 25
r 0.19477 3 5 cbr 210 ------- 0 0.0 5.0 19 19
r 0.19581 2 3 cbr 210 ------- 0 0.0 5.0 22 22
+ 0.19581 3 5 cbr 210 ------- 0 0.0 5.0 22 22
- 0.19581 3 5 cbr 210 ------- 0 0.0 5.0 22 22
r 0.19646 0 2 cbr 210 ------- 0 0.0 5.0 23 23
+ 0.19646 2 3 cbr 210 ------- 0 0.0 5.0 23 23
- 0.19646 2 3 cbr 210 ------- 0 0.0 5.0 23 23
+ 0.1975 0 2 cbr 210 ------- 0 0.0 5.0 26 26
- 0.1975 0 2 cbr 210 ------- 0 0.0 5.0 26 26
r 0.19852 3 5 cbr 210 ------- 0 0.0 5.0 20 20
r 0.19956 2 3 cbr 210 ------- 0 0.0 5.0 23 23
+ 0.19956 3 5 cbr 210 ------- 0 0.0 5.0 23 23
- 0.19956 3 5 cbr 210 ------- 0 0.0 5.0 23 23
r 0.20021 0 2 cbr 210 ------- 0 0.0 5.0 24 24
+ 0.20021 2 3 cbr 210 ------- 0 0.0 5.0 24 24
- 0.20021 2 3 cbr 210 ------- 0 0.0 5.0 24 24
+ 0.20125 0 2 cbr 210 ------- 0 0.0 5.0 27 27
- 0.20125 0 2 cbr 210 ------- 0 0.0 5.0 27 27
r 0.20227 3 5 cbr 210 ------- 0 0.0 5.0 21 21
r 0.20331 2 3 cbr 210 ------- 0 0.0 5.0 24 24
+ 0.20331 3 5 cbr 210 ------- 0 0.0 5.0 24 24
- 0.20331 3 5 cbr 210 ------- 0 0.0 5.0 24 24
r 0.20396 0 2 cbr 210 ------- 0 0.0 5.0 25 25
+ 0.20396 2 3 cbr 210 ------- 0 0.0 5.0 25 25
- 0.20396 2 3 cbr 210 ------- 0 0.0 5.0 25 25
+ 0.205 0 2 cbr 210 ------- 0 0.0 5.0 28 28
- 0.205 0 2 cbr 210 ------- 0 0.0 5.0 28 28
r 0.20602 3 5 cbr 210 ------- 0 0.0 5.0 22 22
r 0.20706 2 3 cbr 210 ------- 0 0.0 5.0 25 25
+ 0.20706 3 5 cbr 210 ------- 0 0.0 5.0 25 25
- 0.20706 3 5 cbr 210 ------- 0 0.0 5.0 25 25
r 0.20771 0 2 cbr 210 ------- 0 0.0 5.0 26 26
+ 0.20771 2 3 cbr 210 ------- 0 0.0 5.0 26 26
- 0.20771 2 3 cbr 210 ------- 0 0.0 5.0 26 26
+ 0.20875 0 2 cbr 210 ------- 0 0.0 5.0 29 29
- 0.20875 0 2 cbr 210 ------- 0 0.0 5.0 29 29
r 0.20977 3 5 cbr 210 ------- 0 0.0 5.0 23 23
r 0.21081 2 3 cbr 210 ------- 0 0.0 5.0 26 26
+ 0.21081 3 5 cbr 210 ------- 0 0.0 5.0 26 26
- 0.21081 3 5 cbr 210 ------- 0 0.0 5.0 26 26
r 0.21146 0 2 cbr 210 ------- 0 0.0 5.0 27 27
+ 0.21146 2 3 cbr 210 ------- 0 0.0 5.0 27 27
- 0.21146 2 3 cbr 210 ------- 0 0.0 5.0 27 27
+ 0.2125 0 2 cbr 210 ------- 0 0.0 5.0 30 30
- 0.2125 0 2 cbr 210 ------- 0 0.0 5.0 30 30
r 0.21352 3 5 cbr 210 ------- 0 0.0 5.0 24 24
r 0.21456 2 3 cbr 210 ------- 0 0.0 5.0 27 27
+ 0.21456 3 5 cbr 210 ------- 0 0.0 5.0 27 27
- 0.21456 3 5 cbr 210 ------- 0 0.0 5.0 27 27
r 0.21521 0 2 cbr 210 ------- 0 0.0 5.0 28 28
+ 0.21521 2 3 cbr 210 ------- 0 0.0 5.0 28 28
- 0.21521 2 3 cbr 210 ------- 0 0.0 5.0 28 28
+ 0.21625 0 2 cbr 210 ------- 0 0.0 5.0 31 31
- 0.21625 0 2 cbr 210 ------- 0 0.0 5.0 31 31
r 0.21727 3 5 cbr 210 ------- 0 0.0 5.0 25 25
r 0.21831 2 3 cbr 210 ------- 0 0.0 5.0 28 28
+ 0.21831 3 5 cbr 210 ------- 0 0.0 5.0 28 28
- 0.21831 3 5 cbr 210 ------- 0 0.0 5.0 28 28
r 0.21896 0 2 cbr 210 ------- 0 0.0 5.0 29 29
+ 0.21896 2 3 cbr 210 ------- 0 0.0 5.0 29 29
- 0.21896 2 3 cbr 210 ------- 0 0.0 5.0 29 29
+ 0.22 0 2 cbr 210 ------- 0 0.0 5.0 32 32
- 0.22 0 2 cbr 210 ------- 0 0.0 5.0 32 32
r 0.22102 3 5 cbr 210 ------- 0 0.0 5.0 26 26
r 0.22206 2 3 cbr 210 ------- 0 0.0 5.0 29 29
+ 0.22206 3 5 cbr 210 ------- 0 0.0 5.0 29 29
- 0.22206 3 5 cbr 210 ------- 0 0.0 5.0 29 29
r 0.22271 0 2 cbr 210 ------- 0 0.0 5.0 30 30
+ 0.22271 2 3 cbr 210 ------- 0 0.0 5.0 30 30
- 0.22271 2 3 cbr 210 ------- 0 0.0 5.0 30 30
+ 0.22375 0 2 cbr 210 ------- 0 0.0 5.0 33 33
- 0.22375 0 2 cbr 210 ------- 0 0.0 5.0 33 33
r 0.22477 3 5 cbr 210 ------- 0 0.0 5.0 27 27
r 0.22581 2 3 cbr 210 ------- 0 0.0 5.0 30 30
+ 0.22581 3 5 cbr 210 ------- 0 0.0 5.0 30 30
- 0.22581 3 5 cbr 210 ------- 0 0.0 5.0 30 30
r 0.22646 0 2 cbr 210 ------- 0 0.0 5.0 31 31
+ 0.22646 2 3 cbr 210 ------- 0 0.0 5.0 31 31
- 0.22646 2 3 cbr 210 ------- 0 0.0 5.0 31 31
+ 0.2275 0 2 cbr 210 ------- 0 0.0 5.0 34 34
- 0.2275 0 2 cbr 210 ------- 0 0.0 5.0 34 34
r 0.22852 3 5 cbr 210 ------- 0 0.0 5.0 28 28
r 0.22956 2 3 cbr 210 ------- 0 0.0 5.0 31 31
+ 0.22956 3 5 cbr 210 ------- 0 0.0 5.0 31 31
- 0.22956 3 5 cbr 210 ------- 0 0.0 5.0 31 31
r 0.23021 0 2 cbr 210 ------- 0 0.0 5.0 32 32
+ 0.23021 2 3 cbr 210 ------- 0 0.0 5.0 32 32
- 0.23021 2 3 cbr 210 ------- 0 0.0 5.0 32 32
+ 0.23125 0 2 cbr 210 ------- 0 0.0 5.0 35 35
- 0.23125 0 2 cbr 210 ------- 0 0.0 5.0 35 35
r 0.23227 3 5 cbr 210 ------- 0 0.0 5.0 29 29
r 0.23331 2 3 cbr 210 ------- 0 0.0 5.0 32 32
+ 0.23331 3 5 cbr 210 ------- 0 0.0 5.0 32 32
- 0.23331 3 5 cbr 210 ------- 0 0.0 5.0 32 32
r 0.23396 0 2 cbr 210 ------- 0 0.0 5.0 33 33
+ 0.23396 2 3 cbr 210 ------- 0 0.0 5.0 33 33
- 0.23396 2 3 cbr 210 ------- 0 0.0 5.0 33 33
+ 0.235 0 2 cbr 210 ------- 0 0.0 5.0 36 36
- 0.235 0 2 cbr 210 ------- 0 0.0 5.0 36 36
r 0.23602 3 5 cbr 210 ------- 0 0.0 5.0 30 30
r 0.23706 2 3 cbr 210 ------- 0 0.0 5.0 33 33
+ 0.23706 3 5 cbr 210 ------- 0 0.0 5.0 33 33
- 0.23706 3 5 cbr 210 ------- 0 0.0 5.0 33 33
r 0.23771 0 2 cbr 210 ------- 0 0.0 5.0 34 34
+ 0.23771 2 3 cbr 210 ------- 0 0.0 5.0 34 34
- 0.23771 2 3 cbr 210 ------- 0 0.0 5.0 34 34
+ 0.23875 0 2 cbr 210 ------- 0 0.0 5.0 37 37
- 0.23875 0 2 cbr 210 ------- 0 0.0 5.0 37 37
r 0.23977 3 5 cbr 210 ------- 0 0.0 5.0 31 31
r 0.24081 2 3 cbr 210 ------- 0 0.0 5.0 34 34
+ 0.24081 3 5 cbr 210 ------- 0 0.0 5.0 34 34
- 0.24081 3 5 cbr 210 ------- 0 0.0 5.0 34 34
r 0.24146 0 2 cbr 210 ------- 0 0.0 5.0 35 35
+ 0.24146 2 3 cbr 210 ------- 0 0.0 5.0 35 35
- 0.24146 2 3 cbr 210 ------- 0 0.0 5.0 35 35
+ 0.2425 0 2 cbr 210 ------- 0 0.0 5.0 38 38
- 0.2425 0 2 cbr 210 ------- 0 0.0 5.0 38 38
r 0.24352 3 5 cbr 210 ------- 0 0.0 5.0 32 32
r 0.24456 2 3 cbr 210 ------- 0 0.0 5.0 35 35
+ 0.24456 3 5 cbr 210 ------- 0 0.0 5.0 35 35
- 0.24456 3 5 cbr 210 ------- 0 0.0 5.0 35 35
r 0.24521 0 2 cbr 210 ------- 0 0.0 5.0 36 36
+ 0.24521 2 3 cbr 210 ------- 0 0.0 5.0 36 36
- 0.24521 2 3 cbr 210 ------- 0 0.0 5.0 36 36
+ 0.24625 0 2 cbr 210 ------- 0 0.0 5.0 39 39
- 0.24625 0 2 cbr 210 ------- 0 0.0 5.0 39 39
r 0.24727 3 5 cbr 210 ------- 0 0.0 5.0 33 33
r 0.24831 2 3 cbr 210 ------- 0 0.0 5.0 36 36
+ 0.24831 3 5 cbr 210 ------- 0 0.0 5.0 36 36
- 0.24831 3 5 cbr 210 ------- 0 0.0 5.0 36 36
r 0.24896 0 2 cbr 210 ------- 0 0.0 5.0 37 37
+ 0.24896 2 3 cbr 210 ------- 0 0.0 5.0 37 37
- 0.24896 2 3 cbr 210 ------- 0 0.0 5.0 37 37
+ 0.25 0 2 cbr 210 ------- 0 0.0 5.0 40 40
- 0.25 0 2 cbr 210 ------- 0 0.0 5.0 40 40
r 0.25102 3 5 cbr 210 ------- 0 0.0 5.0 34 34
r 0.25206 2 3 cbr 210 ------- 0 0.0 5.0 37 37
+ 0.25206 3 5 cbr 210 ------- 0 0.0 5.0 37 37
- 0.25206 3 5 cbr 210 ------- 0 0.0 5.0 37 37
r 0.25271 0 2 cbr 210 ------- 0 0.0 5.0 38 38
+ 0.25271 2 3 cbr 210 ------- 0 0.0 5.0 38 38
- 0.25271 2 3 cbr 210 ------- 0 0.0 5.0 38 38
+ 0.25375 0 2 cbr 210 ------- 0 0.0 5.0 41 41
- 0.25375 0 2 cbr 210 ------- 0 0.0 5.0 41 41
r 0.25477 3 5 cbr 210 ------- 0 0.0 5.0 35 35
r 0.25581 2 3 cbr 210 ------- 0 0.0 5.0 38 38
+ 0.25581 3 5 cbr 210 ------- 0 0.0 5.0 38 38
- 0.25581 3 5 cbr 210 ------- 0 0.0 5.0 38 38
r 0.25646 0 2 cbr 210 ------- 0 0.0 5.0 39 39
+ 0.25646 2 3 cbr 210 ------- 0 0.0 5.0 39 39
- 0.25646 2 3 cbr 210 ------- 0 0.0 5.0 39 39
+ 0.2575 0 2 cbr 210 ------- 0 0.0 5.0 42 42
- 0.2575 0 2 cbr 210 ------- 0 0.0 5.0 42 42
r 0.25852 3 5 cbr 210 ------- 0 0.0 5.0 36 36
r 0.25956 2 3 cbr 210 ------- 0 0.0 5.0 39 39
+ 0.25956 3 5 cbr 210 ------- 0 0.0 5.0 39 39
- 0.25956 3 5 cbr 210 ------- 0 0.0 5.0 39 39
r 0.26021 0 2 cbr 210 ------- 0 0.0 5.0 40 40
+ 0.26021 2 3 cbr 210 ------- 0 0.0 5.0 40 40
- 0.26021 2 3 cbr 210 ------- 0 0.0 5.0 40 40
+ 0.26125 0 2 cbr 210 ------- 0 0.0 5.0 43 43
- 0.26125 0 2 cbr 210 ------- 0 0.0 5.0 43 43
r 0.26227 3 5 cbr 210 ------- 0 0.0 5.0 37 37
r 0.26331 2 3 cbr 210 ------- 0 0.0 5.0 40 40
+ 0.26331 3 5 cbr 210 ------- 0 0.0 5.0 40 40
- 0.26331 3 5 cbr 210 ------- 0 0.0 5.0 40 40
r 0.26396 0 2 cbr 210 ------- 0 0.0 5.0 41 41
+ 0.26396 2 3 cbr 210 ------- 0 0.0 5.0 41 41
- 0.26396 2 3 cbr 210 ------- 0 0.0 5.0 41 41
+ 0.265 0 2 cbr 210 ------- 0 0.0 5.0 44 44
- 0.265 0 2 cbr 210 ------- 0 0.0 5.0 44 44
r 0.26602 3 5 cbr 210 ------- 0 0.0 5.0 38 38
r 0.26706 2 3 cbr 210 ------- 0 0.0 5.0 41 41
+ 0.26706 3 5 cbr 210 ------- 0 0.0 5.0 41 41
- 0.26706 3 5 cbr 210 ------- 0 0.0 5.0 41 41
r 0.26771 0 2 cbr 210 ------- 0 0.0 5.0 42 42
+ 0.26771 2 3 cbr 210 ------- 0 0.0 5.0 42 42
- 0.26771 2 3 cbr 210 ------- 0 0.0 5.0 42 42
+ 0.26875 0 2 cbr 210 ------- 0 0.0 5.0 45 45
- 0.26875 0 2 cbr 210 ------- 0 0.0 5.0 45 45
r 0.26977 3 5 cbr 210 ------- 0 0.0 5.0 39 39
r 0.27081 2 3 cbr 210 ------- 0 0.0 5.0 42 42
+ 0.27081 3 5 cbr 210 ------- 0 0.0 5.0 42 42
- 0.27081 3 5 cbr 210 ------- 0 0.0 5.0 42 42
r 0.27146 0 2 cbr 210 ------- 0 0.0 5.0 43 43
+ 0.27146 2 3 cbr 210 ------- 0 0.0 5.0 43 43
- 0.27146 2 3 cbr 210 ------- 0 0.0 5.0 43 43
+ 0.2725 0 2 cbr 210 ------- 0 0.0 5.0 46 46
- 0.2725 0 2 cbr 210 ------- 0 0.0 5.0 46 46
r 0.27352 3 5 cbr 210 ------- 0 0.0 5.0 40 40
r 0.27456 2 3 cbr 210 ------- 0 0.0 5.0 43 43
+ 0.27456 3 5 cbr 210 ------- 0 0.0 5.0 43 43
- 0.27456 3 5 cbr 210 ------- 0 0.0 5.0 43 43
r 0.27521 0 2 cbr 210 ------- 0 0.0 5.0 44 44
+ 0.27521 2 3 cbr 210 ------- 0 0.0 5.0 44 44
- 0.27521 2 3 cbr 210 ------- 0 0.0 5.0 44 44
+ 0.27625 0 2 cbr 210 ------- 0 0.0 5.0 47 47
- 0.27625 0 2 cbr 210 ------- 0 0.0 5.0 47 47
r 0.27727 3 5 cbr 210 ------- 0 0.0 5.0 41 41
r 0.27831 2 3 cbr 210 ------- 0 0.0 5.0 44 44
+ 0.27831 3 5 cbr 210 ------- 0 0.0 5.0 44 44
- 0.27831 3 5 cbr 210 ------- 0 0.0 5.0 44 44
r 0.27896 0 2 cbr 210 ------- 0 0.0 5.0 45 45
+ 0.27896 2 3 cbr 210 ------- 0 0.0 5.0 45 45
- 0.27896 2 3 cbr 210 ------- 0 0.0 5.0 45 45
+ 0.28 0 2 cbr 210 ------- 0 0.0 5.0 48 48
- 0.28 0 2 cbr 210 ------- 0 0.0 5.0 48 48
r 0.28102 3 5 cbr 210 ------- 0 0.0 5.0 42 42
r 0.28206 2 3 cbr 210 ------- 0 0.0 5.0 45 45
+ 0.28206 3 5 cbr 210 ------- 0 0.0 5.0 45 45
- 0.28206 3 5 cbr 210 ------- 0 0.0 5.0 45 45
r 0.28271 0 2 cbr 210 ------- 0 0.0 5.0 46 46
+ 0.28271 2 3 cbr 210 ------- 0 0.0 5.0 46 46
- 0.28271 2 3 cbr 210 ------- 0 0.0 5.0 46 46
+ 0.28375 0 2 cbr 210 ------- 0 0.0 5.0 49 49
- 0.28375 0 2 cbr 210 ------- 0 0.0 5.0 49 49
r 0.28477 3 5 cbr 210 ------- 0 0.0 5.0 43 43
r 0.28581 2 3 cbr 210 ------- 0 0.0 5.0 46 46
+ 0.28581 3 5 cbr 210 ------- 0 0.0 5.0 46 46
- 0.28581 3 5 cbr 210 ------- 0 0.0 5.0 46 46
r 0.28646 0 2 cbr 210 ------- 0 0.0 5.0 47 47
+ 0.28646 2 3 cbr 210 ------- 0 0.0 5.0 47 47
- 0.28646 2 3 cbr 210 ------- 0 0.0 5.0 47 47
+ 0.2875 0 2 cbr 210 ------- 0 0.0 5.0 50 50
- 0.2875 0 2 cbr 210 ------- 0 0.0 5.0 50 50
r 0.28852 3 5 cbr 210 ------- 0 0.0 5.0 44 44
r 0.28956 2 3 cbr 210 ------- 0 0.0 5.0 47 47
+ 0.28956 3 5 cbr 210 ------- 0 0.0 5.0 47 47
- 0.28956 3 5 cbr 210 ------- 0 0.0 5.0 47 47
r 0.29021 0 2 cbr 210 ------- 0 0.0 5.0 48 48
+ 0.29021 2 3 cbr 210 ------- 0 0.0 5.0 48 48
- 0.29021 2 3 cbr 210 ------- 0 0.0 5.0 48 48
+ 0.29125 0 2 cbr 210 ------- 0 0.0 5.0 51 51
- 0.29125 0 2 cbr 210 ------- 0 0.0 5.0 51 51
r 0.29227 3 5 cbr 210 ------- 0 0.0 5.0 45 45
r 0.29331 2 3 cbr 210 ------- 0 0.0 5.0 48 48
+ 0.29331 3 5 cbr 210 ------- 0 0.0 5.0 48 48
- 0.29331 3 5 cbr 210 ------- 0 0.0 5.0 48 48
r 0.29396 0 2 cbr 210 ------- 0 0.0 5.0 49 49
+ 0.29396 2 3 cbr 210 ------- 0 0.0 5.0 49 49
- 0.29396 2 3 cbr 210 ------- 0 0.0 5.0 49 49
+ 0.295 0 2 cbr 210 ------- 0 0.0 5.0 52 52
- 0.295 0 2 cbr 210 ------- 0 0.0 5.0 52 52
r 0.29602 3 5 cbr 210 ------- 0 0.0 5.0 46 46
r 0.29706 2 3 cbr 210 ------- 0 0.0 5.0 49 49
+ 0.29706 3 5 cbr 210 ------- 0 0.0 5.0 49 49
- 0.29706 3 5 cbr 210 ------- 0 0.0 5.0 49 49
r 0.29771 0 2 cbr 210 ------- 0 0.0 5.0 50 50
+ 0.29771 2 3 cbr 210 ------- 0 0.0 5.0 50 50
- 0.29771 2 3 cbr 210 ------- 0 0.0 5.0 50 50
+ 0.29875 0 2 cbr 210 ------- 0 0.0 5.0 53 53
- 0.29875 0 2 cbr 210 ------- 0 0.0 5.0 53 53
r 0.29977 3 5 cbr 210 ------- 0 0.0 5.0 47 47
r 0.30081 2 3 cbr 210 ------- 0 0.0 5.0 50 50
+ 0.30081 3 5 cbr 210 ------- 0 0.0 5.0 50 50
- 0.30081 3 5 cbr 210 ------- 0 0.0 5.0 50 50
r 0.30146 0 2 cbr 210 ------- 0 0.0 5.0 51 51
+ 0.30146 2 3 cbr 210 ------- 0 0.0 5.0 51 51
- 0.30146 2 3 cbr 210 ------- 0 0.0 5.0 51 51
+ 0.3025 0 2 cbr 210 ------- 0 0.0 5.0 54 54
- 0.3025 0 2 cbr 210 ------- 0 0.0 5.0 54 54
r 0.30352 3 5 cbr 210 ------- 0 0.0 5.0 48 48
r 0.30456 2 3 cbr 210 ------- 0 0.0 5.0 51 51
+ 0.30456 3 5 cbr 210 ------- 0 0.0 5.0 51 51
- 0.30456 3 5 cbr 210 ------- 0 0.0 5.0 51 51
r 0.30521 0 2 cbr 210 ------- 0 0.0 5.0 52 52
+ 0.30521 2 3 cbr 210 ------- 0 0.0 5.0 52 52
- 0.30521 2 3 cbr 210 ------- 0 0.0 5.0 52 52
+ 0.30625 0 2 cbr 210 ------- 0 0.0 5.0 55 55
- 0.30625 0 2 cbr 210 ------- 0 0.0 5.0 55 55
r 0.30727 3 5 cbr 210 ------- 0 0.0 5.0 49 49
r 0.30831 2 3 cbr 210 ------- 0 0.0 5.0 52 52
+ 0.30831 3 5 cbr 210 ------- 0 0.0 5.0 52 52
- 0.30831 3 5 cbr 210 ------- 0 0.0 5.0 52 52
r 0.30896 0 2 cbr 210 ------- 0 0.0 5.0 53 53
+ 0.30896 2 3 cbr 210 ------- 0 0.0 5.0 53 53
- 0.30896 2 3 cbr 210 ------- 0 0.0 5.0 53 53
+ 0.31 0 2 cbr 210 ------- 0 0.0 5.0 56 56
- 0.31 0 2 cbr 210 ------- 0 0.0 5.0 56 56
r 0.31102 3 5 cbr 210 ------- 0 0.0 5.0 50 50
r 0.31206 2 3 cbr 210 ------- 0 0.0 5.0 53 53
+ 0.31206 3 5 cbr 210 ------- 0 0.0 5.0 53 53
- 0.31206 3 5 cbr 210 ------- 0 0.0 5.0 53 53
r 0.31271 0 2 cbr 210 ------- 0 0.0 5.0 54 54
+ 0.31271 2 3 cbr 210 ------- 0 0.0 5.0 54 54
- 0.31271 2 3 cbr 210 ------- 0 0.0 5.0 54 54
+ 0.31375 0 2 cbr 210 ------- 0 0.0 5.0 57 57
- 0.31375 0 2 cbr 210 ------- 0 0.0 5.0 57 57
r 0.31477 3 5 cbr 210 ------- 0 0.0 5.0 51 51
r 0.31581 2 3 cbr 210 ------- 0 0.0 5.0 54 54
+ 0.31581 3 5 cbr 210 ------- 0 0.0 5.0 54 54
- 0.31581 3 5 cbr 210 ------- 0 0.0 5.0 54 54
r 0.31646 0 2 cbr 210 ------- 0 0.0 5.0 55 55
+ 0.31646 2 3 cbr 210 ------- 0 0.0 5.0 55 55
- 0.31646 2 3 cbr 210 ------- 0 0.0 5.0 55 55
+ 0.3175 0 2 cbr 210 ------- 0 0.0 5.0 58 58
- 0.3175 0 2 cbr 210 ------- 0 0.0 5.0 58 58
r 0.31852 3 5 cbr 210 ------- 0 0.0 5.0 52 52
r 0.31956 2 3 cbr 210 ------- 0 0.0 5.0 55 55
+ 0.31956 3 5 cbr 210 ------- 0 0.0 5.0 55 55
- 0.31956 3 5 cbr 210 ------- 0 0.0 5.0 55 55
r 0.32021 0 2 cbr 210 ------- 0 0.0 5.0 56 56
+ 0.32021 2 3 cbr 210 ------- 0 0.0 5.0 56 56
- 0.32021 2 3 cbr 210 ------- 0 0.0 5.0 56 56
+ 0.32125 0 2 cbr 210 ------- 0 0.0 5.0 59 59
- 0.32125 0 2 cbr 210 ------- 0 0.0 5.0 59 59
r 0.32227 3 5 cbr 210 ------- 0 0.0 5.0 53 53
r 0.32331 2 3 cbr 210 ------- 0 0.0 5.0 56 56
+ 0.32331 3 5 cbr 210 ------- 0 0.0 5.0 56 56
- 0.32331 3 5 cbr 210 ------- 0 0.0 5.0 56 56
r 0.32396 0 2 cbr 210 ------- 0 0.0 5.0 57 57
+ 0.32396 2 3 cbr 210 ------- 0 0.0 5.0 57 57
- 0.32396 2 3 cbr 210 ------- 0 0.0 5.0 57 57
+ 0.325 0 2 cbr 210 ------- 0 0.0 5.0 60 60
- 0.325 0 2 cbr 210 ------- 0 0.0 5.0 60 60
r 0.32602 3 5 cbr 210 ------- 0 0.0 5.0 54 54
r 0.32706 2 3 cbr 210 ------- 0 0.0 5.0 57 57
+ 0.32706 3 5 cbr 210 ------- 0 0.0 5.0 57 57
- 0.32706 3 5 cbr 210 ------- 0 0.0 5.0 57 57
r 0.32771 0 2 cbr 210 ------- 0 0.0 5.0 58 58
+ 0.32771 2 3 cbr 210 ------- 0 0.0 5.0 58 58
- 0.32771 2 3 cbr 210 ------- 0 0.0 5.0 58 58
+ 0.32875 0 2 cbr 210 ------- 0 0.0 5.0 61 61
- 0.32875 0 2 cbr 210 ------- 0 0.0 5.0 61 61
r 0.32977 3 5 cbr 210 ------- 0 0.0 5.0 55 55
r 0.33081 2 3 cbr 210 ------- 0 0.0 5.0 58 58
+ 0.33081 3 5 cbr 210 ------- 0 0.0 5.0 58 58
- 0.33081 3 5 cbr 210 ------- 0 0.0 5.0 58 58
r 0.33146 0 2 cbr 210 ------- 0 0.0 5.0 59 59
+ 0.33146 2 3 cbr 210 ------- 0 0.0 5.0 59 59
- 0.33146 2 3 cbr 210 ------- 0 0.0 5.0 59 59
+ 0.3325 0 2 cbr 210 ------- 0 0.0 5.0 62 62
- 0.3325 0 2 cbr 210 ------- 0 0.0 5.0 62 62
r 0.33352 3 5 cbr 210 ------- 0 0.0 5.0 56 56
r 0.33456 2 3 cbr 210 ------- 0 0.0 5.0 59 59
+ 0.33456 3 5 cbr 210 ------- 0 0.0 5.0 59 59
- 0.33456 3 5 cbr 210 ------- 0 0.0 5.0 59 59
r 0.33521 0 2 cbr 210 ------- 0 0.0 5.0 60 60
+ 0.33521 2 3 cbr 210 ------- 0 0.0 5.0 60 60
- 0.33521 2 3 cbr 210 ------- 0 0.0 5.0 60 60
+ 0.33625 0 2 cbr 210 ------- 0 0.0 5.0 63 63
- 0.33625 0 2 cbr 210 ------- 0 0.0 5.0 63 63
r 0.33727 3 5 cbr 210 ------- 0 0.0 5.0 57 57
r 0.33831 2 3 cbr 210 ------- 0 0.0 5.0 60 60
+ 0.33831 3 5 cbr 210 ------- 0 0.0 5.0 60 60
- 0.33831 3 5 cbr 210 ------- 0 0.0 5.0 60 60
r 0.33896 0 2 cbr 210 ------- 0 0.0 5.0 61 61
+ 0.33896 2 3 cbr 210 ------- 0 0.0 5.0 61 61
- 0.33896 2 3 cbr 210 ------- 0 0.0 5.0 61 61
+ 0.34 0 2 cbr 210 ------- 0 0.0 5.0 64 64
- 0.34 0 2 cbr 210 ------- 0 0.0 5.0 64 64
r 0.34102 3 5 cbr 210 ------- 0 0.0 5.0 58 58
r 0.34206 2 3 cbr 210 ------- 0 0.0 5.0 61 61
+ 0.34206 3 5 cbr 210 ------- 0 0.0 5.0 61 61
- 0.34206 3 5 cbr 210 ------- 0 0.0 5.0 61 61
r 0.34271 0 2 cbr 210 ------- 0 0.0 5.0 62 62
+ 0.34271 2 3 cbr 210 ------- 0 0.0 5.0 62 62
- 0.34271 2 3 cbr 210 ------- 0 0.0 5.0 62 62
+ 0.34375 0 2 cbr 210 ------- 0 0.0 5.0 65 65
- 0.34375 0 2 cbr 210 ------- 0 0.0 5.0 65 65
r 0.34477 3 5 cbr 210 ------- 0 0.0 5.0 59 59
r 0.34581 2 3 cbr 210 ------- 0 0.0 5.0 62 62
+ 0.34581 3 5 cbr 210 ------- 0 0.0 5.0 62 62
- 0.34581 3 5 cbr 210 ------- 0 0.0 5.0 62 62
r 0.34646 0 2 cbr 210 ------- 0 0.0 5.0 63 63
+ 0.34646 2 3 cbr 210 ------- 0 0.0 5.0 63 63
- 0.34646 2 3 cbr 210 ------- 0 0.0 5.0 63 63
+ 0.3475 0 2 cbr 210 ------- 0 0.0 5.0 66 66
- 0.3475 0 2 cbr 210 ------- 0 0.0 5.0 66 66
r 0.34852 3 5 cbr 210 ------- 0 0.0 5.0 60 60
r 0.34956 2 3 cbr 210 ------- 0 0.0 5.0 63 63
+ 0.34956 3 5 cbr 210 ------- 0 0.0 5.0 63 63
- 0.34956 3 5 cbr 210 ------- 0 0.0 5.0 63 63
r 0.35021 0 2 cbr 210 ------- 0 0.0 5.0 64 64
+ 0.35021 2 3 cbr 210 ------- 0 0.0 5.0 64 64
- 0.35021 2 3 cbr 210 ------- 0 0.0 5.0 64 64
+ 0.35125 0 2 cbr 210 ------- 0 0.0 5.0 67 67
- 0.35125 0 2 cbr 210 ------- 0 0.0 5.0 67 67
r 0.35227 3 5 cbr 210 ------- 0 0.0 5.0 61 61
r 0.35331 2 3 cbr 210 ------- 0 0.0 5.0 64 64
+ 0.35331 3 5 cbr 210 ------- 0 0.0 5.0 64 64
- 0.35331 3 5 cbr 210 ------- 0 0.0 5.0 64 64
r 0.35396 0 2 cbr 210 ------- 0 0.0 5.0 65 65
+ 0.35396 2 3 cbr 210 ------- 0 0.0 5.0 65 65
- 0.35396 2 3 cbr 210 ------- 0 0.0 5.0 65 65
+ 0.355 0 2 cbr 210 ------- 0 0.0 5.0 68 68
- 0.355 0 2 cbr 210 ------- 0 0.0 5.0 68 68
r 0.35602 3 5 cbr 210 ------- 0 0.0 5.0 62 62
r 0.35706 2 3 cbr 210 ------- 0 0.0 5.0 65 65
+ 0.35706 3 5 cbr 210 ------- 0 0.0 5.0 65 65
- 0.35706 3 5 cbr 210 ------- 0 0.0 5.0 65 65
r 0.35771 0 2 cbr 210 ------- 0 0.0 5.0 66 66
+ 0.35771 2 3 cbr 210 ------- 0 0.0 5.0 66 66
- 0.35771 2 3 cbr 210 ------- 0 0.0 5.0 66 66
+ 0.35875 0 2 cbr 210 ------- 0 0.0 5.0 69 69
- 0.35875 0 2 cbr 210 ------- 0 0.0 5.0 69 69
r 0.35977 3 5 cbr 210 ------- 0 0.0 5.0 63 63
r 0.36081 2 3 cbr 210 ------- 0 0.0 5.0 66 66
+ 0.36081 3 5 cbr 210 ------- 0 0.0 5.0 66 66
- 0.36081 3 5 cbr 210 ------- 0 0.0 5.0 66 66
r 0.36146 0 2 cbr 210 ------- 0 0.0 5.0 67 67
+ 0.36146 2 3 cbr 210 ------- 0 0.0 5.0 67 67
- 0.36146 2 3 cbr 210 ------- 0 0.0 5.0 67 67
+ 0.3625 0 2 cbr 210 ------- 0 0.0 5.0 70 70
- 0.3625 0 2 cbr 210 ------- 0 0.0 5.0 70 70
r 0.36352 3 5 cbr 210 ------- 0 0.0 5.0 64 64
r 0.36456 2 3 cbr 210 ------- 0 0.0 5.0 67 67
+ 0.36456 3 5 cbr 210 ------- 0 0.0 5.0 67 67
- 0.36456 3 5 cbr 210 ------- 0 0.0 5.0 67 67
r 0.36521 0 2 cbr 210 ------- 0 0.0 5.0 68 68
+ 0.36521 2 3 cbr 210 ------- 0 0.0 5.0 68 68
- 0.36521 2 3 cbr 210 ------- 0 0.0 5.0 68 68
+ 0.36625 0 2 cbr 210 ------- 0 0.0 5.0 71 71
- 0.36625 0 2 cbr 210 ------- 0 0.0 5.0 71 71
r 0.36727 3 5 cbr 210 ------- 0 0.0 5.0 65 65
r 0.36831 2 3 cbr 210 ------- 0 0.0 5.0 68 68
+ 0.36831 3 5 cbr 210 ------- 0 0.0 5.0 68 68
- 0.36831 3 5 cbr 210 ------- 0 0.0 5.0 68 68
r 0.36896 0 2 cbr 210 ------- 0 0.0 5.0 69 69
+ 0.36896 2 3 cbr 210 ------- 0 0.0 5.0 69 69
- 0.36896 2 3 cbr 210 ------- 0 0.0 5.0 69 69
+ 0.37 0 2 cbr 210 ------- 0 0.0 5.0 72 72
- 0.37 0 2 cbr 210 ------- 0 0.0 5.0 72 72
r 0.37102 3 5 cbr 210 ------- 0 0.0 5.0 66 66
r 0.37206 2 3 cbr 210 ------- 0 0.0 5.0 69 69
+ 0.37206 3 5 cbr 210 ------- 0 0.0 5.0 69 69
- 0.37206 3 5 cbr 210 ------- 0 0.0 5.0 69 69
r 0.37271 0 2 cbr 210 ------- 0 0.0 5.0 70 70
+ 0.37271 2 3 cbr 210 ------- 0 0.0 5.0 70 70
- 0.37271 2 3 cbr 210 ------- 0 0.0 5.0 70 70
+ 0.37375 0 2 cbr 210 ------- 0 0.0 5.0 73 73
- 0.37375 0 2 cbr 210 ------- 0 0.0 5.0 73 73
r 0.37477 3 5 cbr 210 ------- 0 0.0 5.0 67 67
r 0.37581 2 3 cbr 210 ------- 0 0.0 5.0 70 70
+ 0.37581 3 5 cbr 210 ------- 0 0.0 5.0 70 70
- 0.37581 3 5 cbr 210 ------- 0 0.0 5.0 70 70
r 0.37646 0 2 cbr 210 ------- 0 0.0 5.0 71 71
+ 0.37646 2 3 cbr 210 ------- 0 0.0 5.0 71 71
- 0.37646 2 3 cbr 210 ------- 0 0.0 5.0 71 71
+ 0.3775 0 2 cbr 210 ------- 0 0.0 5.0 74 74
- 0.3775 0 2 cbr 210 ------- 0 0.0 5.0 74 74
r 0.37852 3 5 cbr 210 ------- 0 0.0 5.0 68 68
r 0.37956 2 3 cbr 210 ------- 0 0.0 5.0 71 71
+ 0.37956 3 5 cbr 210 ------- 0 0.0 5.0 71 71
- 0.37956 3 5 cbr 210 ------- 0 0.0 5.0 71 71
r 0.38021 0 2 cbr 210 ------- 0 0.0 5.0 72 72
+ 0.38021 2 3 cbr 210 ------- 0 0.0 5.0 72 72
- 0.38021 2 3 cbr 210 ------- 0 0.0 5.0 72 72
+ 0.38125 0 2 cbr 210 ------- 0 0.0 5.0 75 75
- 0.38125 0 2 cbr 210 ------- 0 0.0 5.0 75 75
r 0.38227 3 5 cbr 210 ------- 0 0.0 5.0 69 69
r 0.38331 2 3 cbr 210 ------- 0 0.0 5.0 72 72
+ 0.38331 3 5 cbr 210 ------- 0 0.0 5.0 72 72